[Molden Format]
[Atoms] AU
   H     1     1    0.00000000    0.00000000    0.94486306
   F     2     9    0.00000000    0.00000000   -0.94486306
[GTO]
   1   0
   s     2  1.00
    5.4471780000E+00    1.5628500000E-01
    8.2454700000E-01    9.0469100000E-01
   s     1  1.00
    1.8319200000E-01    1.0000000000E+00

   2   0
   s     3  1.00
    4.1380100000E+02    5.8548300000E-02
    6.2244600000E+01    3.4930800000E-01
    1.3434000000E+01    7.0963200000E-01
   s     2  1.00
    9.7775900000E+00   -4.0732700000E-01
    2.0861700000E+00    1.2231400000E+00
   p     2  1.00
    9.7775900000E+00    2.4668000000E-01
    2.0861700000E+00    8.5232100000E-01
   s     1  1.00
    4.8238300000E-01    1.0000000000E+00
   p     1  1.00
    4.8238300000E-01    1.0000000000E+00

[MO]
   Sym= A
   Ene=     0.0000000000
  Spin= Alpha
 Occup= 1.9999853603
     1 -1.9212210666E-03
     2 -6.4577051909E-03
     3 -9.8527837560E-01
     4 -9.1040291150E-02
     5 4.0083392257E-16
     6 4.0385647603E-16
     7 -3.3133092560E-03
     8 4.0237215609E-02
     9 4.4361517053E-16
    10 5.1389260356E-16
    11 3.1721632600E-03
   Sym= A
   Ene=     0.0000000000
  Spin= Alpha
 Occup= 1.9986460349
     1 -6.1568225369E-03
     2 -4.8765946881E-02
     3 -2.4079056868E-01
     4 2.4776939000E-01
     5 -4.2249175598E-14
     6 -2.9051670860E-14
     7 -1.0382372146E-01
     8 8.3008081429E-01
     9 -4.7771625495E-14
    10 -3.2820517636E-14
    11 -1.0260242818E-01
   Sym= A
   Ene=     0.0000000000
  Spin= Alpha
 Occup= 1.9953522601
     1 -2.7331983338E-16
     2 -3.1145504053E-15
     3 -1.5295739791E-14
     4 1.6780086203E-14
     5 5.3427667910E-01
     6 -9.7022729242E-02
     7 -6.6336696976E-15
     8 5.5523833569E-14
     9 6.0550811237E-01
    10 -1.0995810213E-01
    11 -6.4904663444E-15
   Sym= A
   Ene=     0.0000000000
  Spin= Alpha
 Occup= 1.9953522601
     1 -2.9856558840E-16
     2 -3.1612352558E-15
     3 -1.5216478744E-14
     4 1.6626776638E-14
     5 9.7022729242E-02
     6 5.3427667910E-01
     7 -6.4581355309E-15
     8 5.5142728478E-14
     9 1.0995810213E-01
    10 6.0550811237E-01
    11 -6.3059852549E-15
   Sym= A
   Ene=     0.0000000000
  Spin= Alpha
 Occup= 1.9690977056
     1 2.7819817523E-01
     2 2.1064967785E-01
     3 -2.4528151931E-02
     4 2.9078970560E-02
     5 -5.5611790352E-16
     6 -3.8274491218E-16
     7 4.2020289431E-01
     8 -7.8104499425E-03
     9 -6.0013829987E-16
    10 -4.5175667294E-16
    11 4.4494570720E-01
   Sym= A
   Ene=     0.0000000000
  Spin= Alpha
 Occup= 0.0308329355
     1 6.3836789900E-01
     2 4.4150870650E-01
     3 7.0997821503E-02
     4 -1.1241053559E-01
     5 2.3243003262E-15
     6 1.5985240185E-15
     7 -6.0440421130E-01
     8 -3.4479985459E-01
     9 -2.1142752529E-15
    10 -1.3817371849E-15
    11 -2.3907369847E-01
   Sym= A
   Ene=     0.0000000000
  Spin= Alpha
 Occup= 0.0043717968
     1 8.4248339457E-15
     2 -1.0350839071E-16
     3 -8.1741395470E-15
     4 8.7015094015E-14
     5 9.9289038805E-01
     6 -1.8030537330E-01
     7 -1.6364211527E-14
     8 -7.5189272504E-14
     9 -9.5112711376E-01
    10 1.7272131080E-01
    11 1.4054100175E-14
   Sym= A
   Ene=     0.0000000000
  Spin= Alpha
 Occup= 0.0043717968
     1 -8.2991133047E-15
     2 1.5816979003E-16
     3 7.9884169021E-15
     4 -8.5172072213E-14
     5 -1.8030537330E-01
     6 -9.9289038805E-01
     7 1.5950066176E-14
     8 7.3608177991E-14
     9 1.7272131080E-01
    10 9.5112711376E-01
    11 -1.3727752454E-14
   Sym= A
   Ene=     0.0000000000
  Spin= Alpha
 Occup= 0.0010975639
     1 -4.7285615136E-02
     2 -1.4920831946E-02
     3 1.2870689976E-01
     4 -1.3443798394E+00
     5 7.1492454699E-14
     6 4.8308934526E-14
     7 3.8403117905E-01
     8 1.1475607722E+00
     9 -6.8539690826E-14
    10 -4.6220231008E-14
    11 -3.7295869844E-01
   Sym= A
   Ene=     0.0000000000
  Spin= Alpha
 Occup= 0.0006087124
     1 1.1760367514E+00
     2 -1.3167295662E+00
     3 -5.3737528370E-03
     4 -7.1873969394E-02
     5 -3.8553179984E-15
     6 -2.6210288509E-15
     7 1.2215007793E-01
     8 3.6588066890E-01
     9 3.7702561527E-15
    10 2.5195176629E-15
    11 -2.1203133840E-01
   Sym= A
   Ene=     0.0000000000
  Spin= Alpha
 Occup= 0.0002835737
     1 4.1935290699E-01
     2 6.1852408082E-01
     3 -1.9432267950E-02
     4 7.0381354782E-01
     5 -8.0797243152E-15
     6 -5.5313234167E-15
     7 8.0559315370E-01
     8 -1.0162627690E+00
     9 7.7545430207E-15
    10 5.2736024313E-15
    11 -1.2398992860E+00
