[Molden Format]
[Atoms] AU
  Be     1     4    0.00000000    0.00000000    1.32280829
  Be     2     4    0.00000000    0.00000000   -1.32280829
[GTO]
   1   0
   s     8  1.00
    2.9400000000E+03    6.8000000000E-04
    4.4120000000E+02    5.2360000000E-03
    1.0050000000E+02    2.6606000000E-02
    2.8430000000E+01    9.9993000000E-02
    9.1690000000E+00    2.6970200000E-01
    3.1960000000E+00    4.5146900000E-01
    1.1590000000E+00    2.9507400000E-01
    1.8110000000E-01    1.2587000000E-02
   s     8  1.00
    2.9400000000E+03   -1.2300000000E-04
    4.4120000000E+02   -9.6600000000E-04
    1.0050000000E+02   -4.8310000000E-03
    2.8430000000E+01   -1.9314000000E-02
    9.1690000000E+00   -5.3280000000E-02
    3.1960000000E+00   -1.2072300000E-01
    1.1590000000E+00   -1.3343500000E-01
    1.8110000000E-01    5.3076700000E-01
   s     1  1.00
    5.8900000000E-02    1.0000000000E+00
   p     3  1.00
    3.6190000000E+00    2.9111000000E-02
    7.1100000000E-01    1.6936500000E-01
    1.9510000000E-01    5.1345800000E-01
   p     1  1.00
    6.0180000000E-02    1.0000000000E+00
   d     1  1.00
    2.3800000000E-01    1.0000000000E+00

   2   0
   s     8  1.00
    2.9400000000E+03    6.8000000000E-04
    4.4120000000E+02    5.2360000000E-03
    1.0050000000E+02    2.6606000000E-02
    2.8430000000E+01    9.9993000000E-02
    9.1690000000E+00    2.6970200000E-01
    3.1960000000E+00    4.5146900000E-01
    1.1590000000E+00    2.9507400000E-01
    1.8110000000E-01    1.2587000000E-02
   s     8  1.00
    2.9400000000E+03   -1.2300000000E-04
    4.4120000000E+02   -9.6600000000E-04
    1.0050000000E+02   -4.8310000000E-03
    2.8430000000E+01   -1.9314000000E-02
    9.1690000000E+00   -5.3280000000E-02
    3.1960000000E+00   -1.2072300000E-01
    1.1590000000E+00   -1.3343500000E-01
    1.8110000000E-01    5.3076700000E-01
   s     1  1.00
    5.8900000000E-02    1.0000000000E+00
   p     3  1.00
    3.6190000000E+00    2.9111000000E-02
    7.1100000000E-01    1.6936500000E-01
    1.9510000000E-01    5.1345800000E-01
   p     1  1.00
    6.0180000000E-02    1.0000000000E+00
   d     1  1.00
    2.3800000000E-01    1.0000000000E+00

[5D]
[MO]
   Sym= A
   Ene=     0.0000000000
  Spin= Alpha
 Occup= 1.9999246678
     1 -7.0532446228E-01
     2 9.8341746499E-03
     3 5.2740790304E-03
     6 -1.3689819998E-03
     9 6.1341526212E-04
    10 -2.4925268112E-03
    13 5.6885802399E-06
    14 4.7901613730E-04
    15 -7.0532446027E-01
    16 9.8341746154E-03
    17 5.2740789382E-03
    20 1.3689819672E-03
    23 -6.1341528864E-04
    24 -2.4925268188E-03
    27 5.6885802340E-06
    28 4.7901613681E-04
   Sym= A
   Ene=     0.0000000000
  Spin= Alpha
 Occup= 1.9999151384
     1 7.0471003380E-01
     2 -1.2100795389E-02
     3 -3.2179766695E-02
     6 1.1441785068E-02
     9 9.2440430556E-03
    10 -2.6465413713E-03
    13 -2.0389377979E-06
    14 -1.7169206849E-04
    15 -7.0471003581E-01
    16 1.2100795417E-02
    17 3.2179766710E-02
    20 1.1441785072E-02
    23 9.2440430539E-03
    24 2.6465413642E-03
    27 2.0389378141E-06
    28 1.7169206985E-04
   Sym= A
   Ene=     0.0000000000
  Spin= Alpha
 Occup= 1.9088022226
     1 -6.1332792245E-02
     2 6.5901052086E-01
     3 2.0862118942E-01
     6 -2.5841490726E-01
     9 1.4462393989E-03
    10 1.2875120829E-02
    13 6.4475965759E-05
    14 5.4293034051E-03
    15 -6.1332792245E-02
    16 6.5901052086E-01
    17 2.0862118942E-01
    20 2.5841490726E-01
    23 -1.4462393995E-03
    24 1.2875120829E-02
    27 6.4475965759E-05
    28 5.4293034051E-03
   Sym= A
   Ene=     0.0000000000
  Spin= Alpha
 Occup= 1.9223961149
     4 4.5610173331E-01
     5 -4.6155035298E-01
     7 1.4397792017E-01
     8 -1.4569788936E-01
    11 -8.3412257503E-03
    12 8.4408705518E-03
    18 4.5610173331E-01
    19 -4.6155035298E-01
    21 1.4397792017E-01
    22 -1.4569788936E-01
    25 8.3412257503E-03
    26 -8.4408705518E-03
   Sym= A
   Ene=     0.0000000000
  Spin= Alpha
 Occup= 0.0447456476
     1 4.5731585311E-02
     2 9.1224047033E-01
     3 1.5489250571E+00
     6 2.3216188081E-01
     9 -3.0338100421E-01
    10 -8.8275934789E-02
    13 -1.1818508981E-03
    14 -9.9519674191E-02
    15 -4.5731585312E-02
    16 -9.1224047033E-01
    17 -1.5489250571E+00
    20 2.3216188081E-01
    23 -3.0338100421E-01
    24 8.8275934790E-02
    27 1.1818508981E-03
    28 9.9519674191E-02
   Sym= A
   Ene=     0.0000000000
  Spin= Alpha
 Occup= 0.0662856739
     4 5.4735088851E-01
     5 5.4088939023E-01
     7 3.8991201261E-02
     8 3.8530908631E-02
    11 -9.3456591983E-02
    12 -9.2353333321E-02
    18 5.4735088851E-01
    19 5.4088939023E-01
    21 3.8991201261E-02
    22 3.8530908631E-02
    25 9.3456591983E-02
    26 9.2353333321E-02
   Sym= A
   Ene=     0.0000000000
  Spin= Alpha
 Occup= 0.0190724086
     1 -6.5838700497E-02
     2 2.3280617289E-01
     3 -3.6883706505E-01
     6 -8.6135734213E-01
     9 4.7032495005E-02
    10 2.6151241788E-01
    13 -3.3864085754E-04
    14 -2.8515803359E-02
    15 -6.5838700497E-02
    16 2.3280617289E-01
    17 -3.6883706505E-01
    20 8.6135734213E-01
    23 -4.7032495006E-02
    24 2.6151241788E-01
    27 -3.3864085754E-04
    28 -2.8515803359E-02
   Sym= A
   Ene=     0.0000000000
  Spin= Alpha
 Occup= 0.0000311440
     4 -5.6596863815E-01
     5 -5.5928735662E-01
     7 4.0106829656E-01
     8 3.9633366989E-01
    11 7.0120884426E-01
    12 6.9293104689E-01
    18 5.6596863816E-01
    19 5.5928735663E-01
    21 -4.0106829656E-01
    22 -3.9633366990E-01
    25 7.0120884426E-01
    26 6.9293104689E-01
   Sym= A
   Ene=     0.0000000000
  Spin= Alpha
 Occup= 0.0227585161
     4 -9.1583820200E-01
     5 9.2677886210E-01
     7 -2.3396866837E-01
     8 2.3676367263E-01
    11 7.9406985799E-03
    12 -8.0355586589E-03
    18 9.1583820200E-01
    19 -9.2677886210E-01
    21 2.3396866837E-01
    22 -2.3676367263E-01
    25 7.9406985799E-03
    26 -8.0355586589E-03
   Sym= A
   Ene=     0.0000000000
  Spin= Alpha
 Occup= 0.0000036018
     1 -9.1744481575E-01
     2 -3.6353463813E+00
     3 -4.0173194747E+00
     6 4.8537410481E-01
     9 2.1063382774E+00
    10 -6.7231852685E-01
    13 8.0604459675E-04
    14 6.7874294279E-02
    15 9.1744481575E-01
    16 3.6353463813E+00
    17 4.0173194747E+00
    20 4.8537410481E-01
    23 2.1063382773E+00
    24 6.7231852685E-01
    27 -8.0604459679E-04
    28 -6.7874294283E-02
   Sym= A
   Ene=     0.0000000000
  Spin= Alpha
 Occup= 0.0000922657
     1 -1.1518458405E-01
     2 3.0923625748E-01
     3 -1.6605390548E-01
     6 4.9019132809E-01
     9 -3.0649329352E-01
    10 6.7032394587E-01
    13 -2.0921496674E-03
    14 -1.7617286038E-01
    15 -1.1518458403E-01
    16 3.0923625753E-01
    17 -1.6605390538E-01
    20 -4.9019132805E-01
    23 3.0649329355E-01
    24 6.7032394588E-01
    27 -2.0921496674E-03
    28 -1.7617286038E-01
   Sym= A
   Ene=     0.0000000000
  Spin= Alpha
 Occup= 0.0080156408
     4 -5.2042129510E-01
     5 5.2663828024E-01
     7 3.9872229767E-01
     8 -4.0348545903E-01
    11 1.7295330916E-01
    12 -1.7501942014E-01
    18 -5.2042129509E-01
    19 5.2663828024E-01
    21 3.9872229767E-01
    22 -4.0348545903E-01
    25 -1.7295330915E-01
    26 1.7501942014E-01
   Sym= A
   Ene=     0.0000000000
  Spin= Alpha
 Occup= 0.0000459680
     4 2.2645952014E-01
     5 2.2378615679E-01
     7 1.2449495098E-01
     8 1.2302528329E-01
    11 4.4156263682E-01
    12 4.3634997291E-01
    18 2.2645952014E-01
    19 2.2378615679E-01
    21 1.2449495098E-01
    22 1.2302528330E-01
    25 -4.4156263681E-01
    26 -4.3634997291E-01
   Sym= A
   Ene=     0.0000000000
  Spin= Alpha
 Occup= 0.0000347010
     1 -7.8634931368E-01
     2 -3.0022984943E+00
     3 9.2044121623E-01
     6 -3.7994454086E-01
     9 -9.4289831717E-01
    10 7.6347701846E-01
    13 -7.6497540773E-05
    14 -6.4415996521E-03
    15 -7.8634931368E-01
    16 -3.0022984943E+00
    17 9.2044121640E-01
    20 3.7994454085E-01
    23 9.4289831723E-01
    24 7.6347701846E-01
    27 -7.6497540814E-05
    28 -6.4415996554E-03
   Sym= A
   Ene=     0.0000000000
  Spin= Alpha
 Occup= 0.0000008004
     1 5.7381330860E-01
     2 2.3673646243E+00
     3 -2.4152279276E+01
     6 -1.3422980393E-01
     9 8.2143694043E+00
    10 3.8368164758E-02
    13 -1.6175809228E-03
    14 -1.3621102854E-01
    15 -5.7381330859E-01
    16 -2.3673646243E+00
    17 2.4152279276E+01
    20 -1.3422980394E-01
    23 8.2143694043E+00
    24 -3.8368164765E-02
    27 1.6175809228E-03
    28 1.3621102854E-01
   Sym= A
   Ene=     0.0000000000
  Spin= Alpha
 Occup= 0.0001230664
     4 1.5379547913E+00
     5 -1.5563272948E+00
     7 -7.2205217992E-01
     8 7.3067786016E-01
    11 -7.2949040947E-01
    12 7.3820494726E-01
    18 -1.5379547913E+00
    19 1.5563272948E+00
    21 7.2205217992E-01
    22 -7.3067786016E-01
    25 -7.2949040947E-01
    26 7.3820494726E-01
   Sym= A
   Ene=     0.0000000000
  Spin= Alpha
 Occup= 0.0000772450
     4 -1.8449032055E+00
     5 -1.8231240522E+00
     7 1.3741784268E-01
     8 1.3579561976E-01
    11 6.6511712067E-01
    12 6.5726538749E-01
    18 1.8449032055E+00
    19 1.8231240522E+00
    21 -1.3741784269E-01
    22 -1.3579561977E-01
    25 6.6511712067E-01
    26 6.5726538748E-01
   Sym= A
   Ene=     0.0000000000
  Spin= Alpha
 Occup= 0.0040007849
     1 -4.9049027462E-02
     2 2.5671076688E-02
     3 4.7989301470E-02
     6 -3.9696836910E-02
     9 2.2136666768E-01
    10 2.2062569105E-01
    13 6.4822446897E-03
    14 5.4584794121E-01
    15 -4.9049027461E-02
    16 2.5671076688E-02
    17 4.7989301473E-02
    20 3.9696836911E-02
    23 -2.2136666768E-01
    24 2.2062569105E-01
    27 6.4822446897E-03
    28 5.4584794121E-01
   Sym= A
   Ene=     0.0000000000
  Spin= Alpha
 Occup= 0.0027874891
    13 5.9028497058E-01
    14 -7.0099588678E-03
    27 5.9028497058E-01
    28 -7.0099588678E-03
   Sym= A
   Ene=     0.0000000000
  Spin= Alpha
 Occup= 0.0000125316
     4 -7.2017759747E-01
     5 -7.1167587324E-01
     7 4.7146050160E-01
     8 4.6589489225E-01
    11 -1.8963732205E-01
    12 -1.8739864617E-01
    18 -7.2017759742E-01
    19 -7.1167587319E-01
    21 4.7146050161E-01
    22 4.6589489226E-01
    25 1.8963732209E-01
    26 1.8739864621E-01
   Sym= A
   Ene=     0.0000000000
  Spin= Alpha
 Occup= 0.0001526251
     1 6.4910703891E-01
     2 3.1244524929E+00
     3 -7.6127291549E+00
     6 -9.8013096484E-01
     9 2.2218805034E+00
    10 -2.8637455011E-01
    13 5.4090062151E-03
    14 4.5547415252E-01
    15 -6.4910703891E-01
    16 -3.1244524929E+00
    17 7.6127291549E+00
    20 -9.8013096483E-01
    23 2.2218805034E+00
    24 2.8637455011E-01
    27 -5.4090062151E-03
    28 -4.5547415252E-01
   Sym= A
   Ene=     0.0000000000
  Spin= Alpha
 Occup= 0.0002883928
     4 6.0848747681E-01
     5 -6.1575650604E-01
     7 -2.3231183724E-01
     8 2.3508704889E-01
    11 4.5173694384E-01
    12 -4.5713342146E-01
    18 6.0848747680E-01
    19 -6.1575650603E-01
    21 -2.3231183723E-01
    22 2.3508704888E-01
    25 -4.5173694384E-01
    26 4.5713342146E-01
   Sym= A
   Ene=     0.0000000000
  Spin= Alpha
 Occup= 0.0001084895
    13 -9.4047144485E-01
    14 1.1168615962E-02
    27 9.4047144485E-01
    28 -1.1168615962E-02
   Sym= A
   Ene=     0.0000000000
  Spin= Alpha
 Occup= 0.0001959664
     1 -1.2025222927E-01
     2 -7.0240908122E-01
     3 8.3974993092E-01
     6 3.7297046947E-01
     9 -1.0958549268E-01
    10 2.4735848170E-01
    13 9.5258847299E-03
    14 8.0214259363E-01
    15 1.2025222927E-01
    16 7.0240908124E-01
    17 -8.3974993093E-01
    20 3.7297046946E-01
    23 -1.0958549268E-01
    24 -2.4735848171E-01
    27 -9.5258847299E-03
    28 -8.0214259363E-01
   Sym= A
   Ene=     0.0000000000
  Spin= Alpha
 Occup= 0.0000038787
     1 1.5337406716E-03
     2 1.7748403197E-01
     3 -4.4896175094E-01
     6 6.0490545723E-01
     9 -1.3178999298E+00
    10 7.3182081295E-02
    13 1.6180908089E-03
    14 1.3625396433E-01
    15 1.5337407080E-03
    16 1.7748403211E-01
    17 -4.4896175109E-01
    20 -6.0490545719E-01
    23 1.3178999297E+00
    24 7.3182081315E-02
    27 1.6180908089E-03
    28 1.3625396433E-01
   Sym= A
   Ene=     0.0000000000
  Spin= Alpha
 Occup= 0.0000003639
     4 -3.3538185593E-01
     5 -3.3142266022E-01
     7 -1.3585109342E+00
     8 -1.3424736604E+00
    11 7.1624969579E-01
    12 7.0779434059E-01
    18 3.3538185594E-01
    19 3.3142266023E-01
    21 1.3585109342E+00
    22 1.3424736604E+00
    25 7.1624969578E-01
    26 7.0779434058E-01
   Sym= A
   Ene=     0.0000000000
  Spin= Alpha
 Occup= 0.0000054424
     4 7.3645100612E-01
     5 -7.4524869563E-01
     7 1.1839153976E+00
     8 -1.1980585246E+00
    11 -9.3856525702E-01
    12 9.4977741594E-01
    18 -7.3645100612E-01
    19 7.4524869562E-01
    21 -1.1839153976E+00
    22 1.1980585246E+00
    25 -9.3856525703E-01
    26 9.4977741594E-01
   Sym= A
   Ene=     0.0000000000
  Spin= Alpha
 Occup= 0.0001192125
     1 -2.3438869499E+00
     2 -8.6530285958E+00
     3 -2.9982118067E+00
     6 5.1622337798E+00
     9 9.3708013682E-01
    10 -1.1226420185E+00
    13 2.7404882318E-04
    14 2.3076726209E-02
    15 2.3438869499E+00
    16 8.6530285958E+00
    17 2.9982118067E+00
    20 5.1622337798E+00
    23 9.3708013681E-01
    24 1.1226420185E+00
    27 -2.7404882317E-04
    28 -2.3076726208E-02
