[Molden Format]
[Atoms] AU
   H     1     1    1.48123726   -0.93019123   -0.00000000
   O     2     8   -0.00000000    0.11720081   -0.00000000
   H     3     1   -1.48123726   -0.93019123   -0.00000000
[GTO]
   1   0
   s     3  1.00
    1.3010000000E+01    1.9685000000E-02
    1.9620000000E+00    1.3797700000E-01
    4.4460000000E-01    4.7814800000E-01
   s     1  1.00
    1.2200000000E-01    1.0000000000E+00
   p     1  1.00
    7.2700000000E-01    1.0000000000E+00

   2   0
   s     8  1.00
    1.1720000000E+04    7.1000000000E-04
    1.7590000000E+03    5.4700000000E-03
    4.0080000000E+02    2.7837000000E-02
    1.1370000000E+02    1.0480000000E-01
    3.7030000000E+01    2.8306200000E-01
    1.3270000000E+01    4.4871900000E-01
    5.0250000000E+00    2.7095200000E-01
    1.0130000000E+00    1.5458000000E-02
   s     8  1.00
    1.1720000000E+04   -1.6000000000E-04
    1.7590000000E+03   -1.2630000000E-03
    4.0080000000E+02   -6.2670000000E-03
    1.1370000000E+02   -2.5716000000E-02
    3.7030000000E+01   -7.0924000000E-02
    1.3270000000E+01   -1.6541100000E-01
    5.0250000000E+00   -1.1695500000E-01
    1.0130000000E+00    5.5736800000E-01
   s     1  1.00
    3.0230000000E-01    1.0000000000E+00
   p     3  1.00
    1.7700000000E+01    4.3018000000E-02
    3.8540000000E+00    2.2891300000E-01
    1.0460000000E+00    5.0872800000E-01
   p     1  1.00
    2.7530000000E-01    1.0000000000E+00
   d     1  1.00
    1.1850000000E+00    1.0000000000E+00

   3   0
   s     3  1.00
    1.3010000000E+01    1.9685000000E-02
    1.9620000000E+00    1.3797700000E-01
    4.4460000000E-01    4.7814800000E-01
   s     1  1.00
    1.2200000000E-01    1.0000000000E+00
   p     1  1.00
    7.2700000000E-01    1.0000000000E+00

[5D]
[MO]
   Sym= A
   Ene=   -20.5480410709
  Spin= Alpha
 Occup= 2.0000000000
     1 4.0707683608E-04
     2 -4.3257396180E-04
     3 -5.7760935716E-04
     4 4.5285838702E-04
     5 1.9785145335E-16
     6 -1.0004001711E+00
     7 -2.3195636566E-03
     8 2.6910915009E-03
     9 6.9405583063E-16
    10 2.4796816703E-03
    11 -1.4938108666E-16
    12 3.7394979146E-16
    13 -4.8447307926E-04
    14 -1.7932428797E-16
    15 1.2428765420E-04
    16 -4.0651131551E-17
    17 9.5872640115E-17
    18 -9.2411074116E-05
    19 -2.5174583459E-16
    20 4.0707683608E-04
    21 -4.3257396180E-04
    22 5.7760935716E-04
    23 4.5285838702E-04
    24 4.3559177598E-17
   Sym= A
   Ene=    -1.3313857569
  Spin= Alpha
 Occup= 2.0000000000
     1 -4.6039830911E-01
     2 -3.2836961427E-02
     3 4.8754190860E-02
     4 -9.2338191604E-03
     5 3.4387965798E-17
     6 5.8061495645E-03
     7 -5.2955670782E-01
     8 -1.0631534049E-01
     9 -2.6000517276E-14
    10 5.6681101622E-01
    11 6.3823226358E-16
    12 -8.5450861863E-15
    13 2.1780521850E-01
    14 4.0081869060E-16
    15 1.0241488551E-02
    16 -4.0751605780E-18
    17 -1.2265626407E-17
    18 6.5811281435E-03
    19 1.4268037158E-15
    20 -4.6039830911E-01
    21 -3.2836961427E-02
    22 -4.8754190860E-02
    23 -9.2338191604E-03
    24 1.9594653785E-17
   Sym= A
   Ene=    -0.7068356529
  Spin= Alpha
 Occup= 2.0000000000
     1 -5.6223898527E-01
     2 -8.6664434519E-02
     3 2.5471945720E-02
     4 -3.1569348342E-02
     5 -5.0928540619E-17
     6 -8.1450243218E-17
     7 2.2225566813E-14
     8 4.0060602765E-15
     9 -7.0955412209E-01
    10 -1.9316377069E-14
    11 -2.5887738780E-16
    12 -2.1415138533E-01
    13 -6.6509936920E-15
    14 -2.0608157049E-16
    15 -2.6454654864E-16
    16 1.8477705721E-18
    17 7.4699909659E-18
    18 -3.6388400600E-16
    19 2.5831974928E-02
    20 5.6223898527E-01
    21 8.6664434519E-02
    22 2.5471945720E-02
    23 3.1569348342E-02
    24 1.2225058648E-18
   Sym= A
   Ene=    -0.5559557000
  Spin= Alpha
 Occup= 2.0000000000
     1 7.7000753265E-02
     2 2.6493642171E-02
     3 -1.6265769788E-03
     4 -1.8431628197E-02
     5 -1.9194749052E-16
     6 6.5977308912E-03
     7 -7.4758886094E-01
     8 -4.9607901275E-01
     9 -2.2108677871E-15
    10 -5.7964900718E-01
    11 -4.7057278915E-15
    12 -1.8661260266E-15
    13 -3.1055648595E-01
    14 -2.6187595298E-15
    15 -8.2904089488E-03
    16 4.4559630332E-18
    17 9.0237499592E-17
    18 -1.0741154147E-02
    19 1.8405041921E-16
    20 7.7000753265E-02
    21 2.6493642171E-02
    22 1.6265769788E-03
    23 -1.8431628197E-02
    24 -1.6374502646E-16
   Sym= A
   Ene=    -0.4910781251
  Spin= Alpha
 Occup= 2.0000000000
     1 -4.1534182609E-16
     2 -1.7048386569E-16
     3 5.9156175343E-17
     4 8.2551885817E-17
     5 -3.0658189371E-02
     6 2.6900897638E-16
     7 3.0517127842E-15
     8 2.0508118227E-15
     9 9.7892829806E-16
    10 3.9561569085E-15
    11 -9.1876804477E-01
    12 -5.0660846929E-17
    13 1.6542907013E-15
    14 -4.9682408212E-01
    15 -5.7213743797E-16
    16 2.0278839382E-16
    17 1.7642472006E-02
    18 3.9715592478E-17
    19 5.3676846654E-16
    20 -9.2085277918E-16
    21 2.5213214893E-16
    22 5.4595779914E-16
    23 3.3136049978E-16
    24 -3.0658189371E-02
   Sym= A
   Ene=     0.1859179322
  Spin= Alpha
 Occup= 0.0000000000
     1 2.4468029699E-01
     2 1.0140012103E+00
     3 -5.9836396924E-01
     4 1.0153720434E-01
     5 1.8770298666E-16
     6 9.1514431997E-02
     7 8.1179453335E-02
     8 -1.8492251217E+00
     9 -2.9551780972E-08
    10 3.8848260735E-01
    11 4.3164985635E-18
    12 -1.9807414747E-08
    13 6.6355663049E-01
    14 -4.6050409539E-17
    15 1.4626213479E-01
    16 1.8044739767E-17
    17 4.8124006410E-17
    18 1.5568559781E-02
    19 1.0888173189E-08
    20 2.4468026462E-01
    21 1.0140011709E+00
    22 5.9836390496E-01
    23 1.0153715433E-01
    24 4.2699640204E-16
   Sym= A
   Ene=     0.2552792906
  Spin= Alpha
 Occup= 0.0000000000
     1 -3.6212538188E-01
     2 1.3877892419E+00
     3 6.2269882188E-02
     4 5.4623513550E-01
     5 -1.3829602749E-15
     6 7.3912039420E-09
     7 3.1888875048E-08
     8 2.6289727333E-08
     9 -1.8546496058E-01
    10 -7.5143799324E-09
    11 3.0059637359E-16
    12 -7.4980021449E-01
    13 1.0191756995E-08
    14 9.3800436661E-16
    15 -3.2445528232E-09
    16 -9.1329033777E-17
    17 -3.0938720152E-16
    18 9.4162683561E-09
    19 3.0362626577E-02
    20 3.6212541188E-01
    21 -1.3877892754E+00
    22 6.2269852280E-02
    23 -5.4623521378E-01
    24 -2.1688796249E-15
   Sym= A
   Ene=     0.8054310243
  Spin= Alpha
 Occup= 0.0000000000
     1 2.3006110777E+00
     2 3.2489219057E-01
     3 -3.7707778529E-01
     4 3.8820537588E-01
     5 3.7621159421E-17
     6 -1.0304950284E-09
     7 -1.8965948451E-09
     8 8.5997144360E-09
     9 -1.0997815578E+00
    10 -6.7240810817E-10
    11 -2.0939084031E-16
    12 -1.3966197982E+00
    13 -1.7245101255E-09
    14 -2.8327685938E-16
    15 -6.3591569682E-10
    16 2.6197007874E-17
    17 -9.3606396872E-19
    18 1.6395431361E-09
    19 4.3246321722E-01
    20 -2.3006110896E+00
    21 -3.2489219742E-01
    22 -3.7707778039E-01
    23 -3.8820538272E-01
    24 2.3886579718E-16
   Sym= A
   Ene=     0.8285629270
  Spin= Alpha
 Occup= 0.0000000000
     1 -2.7633796864E+00
     2 9.9528081529E-02
     3 5.9670578951E-01
     4 -2.3853531891E-01
     5 -4.5177378457E-17
     6 -7.3247887180E-03
     7 4.5275495393E-01
     8 1.8183025485E+00
     9 6.6201413312E-09
    10 -8.3854735790E-01
    11 -1.3359249747E-16
    12 -1.1926173307E-09
    13 -1.0327449091E+00
    14 -2.4340136683E-16
    15 -3.0926569496E-01
    16 1.0582198779E-16
    17 5.3767308876E-17
    18 1.1283885844E-01
    19 -2.4558406671E-09
    20 -2.7633796565E+00
    21 9.9528050587E-02
    22 -5.9670577922E-01
    23 -2.3853531314E-01
    24 4.5934016057E-16
   Sym= A
   Ene=     1.1614322476
  Spin= Alpha
 Occup= 0.0000000000
     1 -3.2245667187E-01
     2 1.2249707167E-01
     3 6.9038636467E-02
     4 -8.9787963531E-03
     5 6.4538765885E-16
     6 3.2069648328E-01
     7 1.5502273107E+00
     8 -6.9629431947E-01
     9 2.4769278855E-11
    10 5.6883659523E-01
    11 2.6957697700E-15
    12 1.0814506908E-10
    13 -5.1776184239E-01
    14 -1.7561446528E-15
    15 -7.9204345218E-01
    16 -3.9984860415E-16
    17 1.9403894994E-15
    18 1.4764676213E-01
    19 3.7929504121E-12
    20 -3.2245667190E-01
    21 1.2249707204E-01
    22 -6.9038636418E-02
    23 -8.9787962910E-03
    24 3.5956158034E-16
   Sym= A
   Ene=     1.2017245854
  Spin= Alpha
 Occup= 0.0000000000
     1 4.3368234023E-15
     2 -1.4334210660E-15
     3 -2.1192570077E-15
     4 4.7789997280E-16
     5 1.9383613330E-01
     6 -1.0610153843E-15
     7 -4.8909287902E-15
     8 2.4294413523E-15
     9 -5.8253181494E-15
    10 -2.5805575104E-15
    11 1.0788669600E+00
    12 3.0865181658E-15
    13 1.9581532584E-15
    14 -9.2814759869E-01
    15 9.9001216617E-16
    16 -2.0292578889E-11
    17 6.8349838507E-01
    18 -1.7765974371E-15
    19 1.0034026479E-14
    20 -2.9568024310E-15
    21 7.0575845390E-16
    22 -2.1241373844E-15
    23 -3.6628023752E-16
    24 1.9383613330E-01
   Sym= A
   Ene=     1.2482997580
  Spin= Alpha
 Occup= 0.0000000000
     1 -1.0969274532E+00
     2 -5.0654359028E-01
     3 1.4563865866E-01
     4 -2.4043885481E-01
     5 1.0135668605E-16
     6 -5.7066399262E-12
     7 -1.1545168291E-10
     8 -4.4993411560E-11
     9 -1.1471742893E+00
    10 -3.1979375506E-11
    11 -6.4731572547E-16
    12 1.8874313205E+00
    13 -1.5650004095E-10
    14 -9.7941202007E-17
    15 -3.7363743477E-11
    16 -1.9665051420E-17
    17 -1.6172639748E-16
    18 -8.3613366731E-11
    19 -5.9498775718E-01
    20 1.0969274529E+00
    21 5.0654359067E-01
    22 1.4563865816E-01
    23 2.4043885526E-01
    24 -3.0871506669E-18
   Sym= A
   Ene=     1.4603612040
  Spin= Alpha
 Occup= 0.0000000000
     1 4.1720721957E-17
     2 -1.2768876151E-15
     3 5.7306918274E-16
     4 -1.0562714968E-15
     5 7.6421217369E-01
     6 3.2899865054E-16
     7 1.5729860595E-15
     8 9.4715178900E-16
     9 -2.4968790137E-16
    10 -1.8013836824E-16
    11 -5.9888228214E-13
    12 2.0879093805E-16
    13 2.0352387114E-17
    14 -1.1190422674E-12
    15 -2.1343206913E-16
    16 -2.0496659435E-01
    17 3.7868999833E-13
    18 2.6983168428E-16
    19 1.2539227728E-16
    20 -1.9806139743E-15
    21 1.2656259536E-15
    22 -5.8644665887E-16
    23 -1.3068875156E-15
    24 -7.6421217369E-01
   Sym= A
   Ene=     1.4872260744
  Spin= Alpha
 Occup= 0.0000000000
     1 1.0296975627E-01
     2 -3.0961064116E-01
     3 -5.2354360096E-01
     4 -5.1224257216E-01
     5 -2.1515287950E-16
     6 -7.6775434605E-02
     7 -2.0987609829E-01
     8 3.1845388485E-01
     9 -4.1894828183E-08
    10 1.8381593836E-01
    11 1.2119756120E-16
    12 8.3838925702E-10
    13 2.4527278969E-01
    14 -1.4682615842E-17
    15 2.0385675732E-02
    16 8.5841908967E-17
    17 3.4454903208E-17
    18 2.2266699115E-01
    19 1.6888041397E-08
    20 1.0296972975E-01
    21 -3.0961064476E-01
    22 5.2354346161E-01
    23 -5.1224261340E-01
    24 3.1612909066E-16
   Sym= A
   Ene=     1.7005293890
  Spin= Alpha
 Occup= 0.0000000000
     1 1.5533328407E-16
     2 -7.6938319649E-16
     3 -2.0503085325E-15
     4 3.8809216263E-18
     5 -8.4145671312E-01
     6 -9.5688192420E-16
     7 -3.4193133612E-15
     8 -2.3722958296E-15
     9 1.0250498936E-15
    10 8.0818254691E-16
    11 2.7758616994E-01
    12 1.6310211603E-15
    13 9.2592136027E-17
    14 4.9830105952E-01
    15 6.0974396355E-16
    16 -4.3635811039E-13
    17 -1.6755175678E-01
    18 -4.5684782105E-16
    19 -4.2711510268E-16
    20 6.5805664209E-16
    21 2.1561816846E-15
    22 2.4190840991E-15
    23 5.0813940098E-15
    24 -8.4145671313E-01
   Sym= A
   Ene=     1.8795213174
  Spin= Alpha
 Occup= 0.0000000000
     1 1.4294769744E+00
     2 3.5090444275E-01
     3 -3.7917974568E-01
     4 1.1988346362E-01
     5 9.6093186987E-17
     6 6.9253456571E-01
     7 3.0420226969E+00
     8 -3.0077137433E+00
     9 -9.9075277962E-11
    10 -4.9116116184E-01
    11 -5.7512114703E-16
    12 3.3966211049E-10
    13 1.2496405645E+00
    14 -1.9249304505E-17
    15 4.5586144373E-01
    16 -2.1126034162E-18
    17 1.8338539193E-16
    18 -1.3339180825E-01
    19 -4.3358214852E-11
    20 1.4294769743E+00
    21 3.5090444366E-01
    22 3.7917974556E-01
    23 1.1988346382E-01
    24 -5.8229302490E-17
   Sym= A
   Ene=     1.9039038178
  Spin= Alpha
 Occup= 0.0000000000
     1 -5.0879882074E-01
     2 9.9389915377E-01
     3 -5.0866562304E-01
     4 -4.3525370559E-01
     5 1.6918389113E-15
     6 -1.4828008201E-09
     7 -1.0304478460E-08
     8 -1.7772995146E-08
     9 1.2451148080E-02
    10 4.2958237663E-09
    11 -5.3893916641E-16
    12 -8.0623087730E-02
    13 -1.7803629131E-09
    14 -8.7859111642E-16
    15 2.3925823507E-09
    16 -1.3591830299E-16
    17 2.4498575153E-16
    18 -7.0307624954E-09
    19 6.3237239005E-02
    20 5.0879885027E-01
    21 -9.9389914679E-01
    22 -5.0866562548E-01
    23 4.3525374694E-01
    24 9.1432347083E-16
   Sym= A
   Ene=     2.4628175179
  Spin= Alpha
 Occup= 0.0000000000
     1 -4.7953761290E-01
     2 -1.3397944124E-01
     3 8.5536005263E-01
     4 -5.8406340053E-01
     5 1.3130938799E-15
     6 -4.7064040000E-09
     7 -2.6306009969E-08
     8 -6.3657583326E-08
     9 7.3877092839E-01
    10 3.7578392173E-08
    11 -3.3206486879E-17
    12 3.0973925743E-01
    13 4.8667274786E-08
    14 -4.6313613322E-16
    15 1.0531678322E-08
    16 -6.3591202662E-17
    17 2.0282272145E-16
    18 1.3785408418E-08
    19 -2.7362896981E-01
    20 4.7953769199E-01
    21 1.3397946943E-01
    22 8.5536019367E-01
    23 5.8406335554E-01
    24 1.0740641411E-15
   Sym= A
   Ene=     2.4753598658
  Spin= Alpha
 Occup= 0.0000000000
     1 -2.1784696594E-01
     2 -4.7650106578E-02
     3 5.8964232130E-01
     4 -7.5157224679E-01
     5 -3.8051801329E-15
     6 2.2236606908E-01
     7 9.4397635624E-01
     8 5.2159962562E-01
     9 1.4972981893E-08
    10 -3.5343526518E-01
    11 6.3984277695E-16
    12 3.1680933196E-08
    13 5.2054755544E-02
    14 1.4744292667E-15
    15 -1.2296147976E-01
    16 2.7954150115E-16
    17 -5.3386073652E-16
    18 1.5824445092E-01
    19 -3.0297398151E-09
    20 -2.1784697859E-01
    21 -4.7650014371E-02
    22 -5.8964232050E-01
    23 -7.5157217770E-01
    24 -1.8669453044E-15
   Sym= A
   Ene=     3.2563487067
  Spin= Alpha
 Occup= 0.0000000000
     1 -2.1436419109E-16
     2 2.4810746655E-16
     3 -6.8506767576E-16
     4 1.5301227396E-16
     5 8.0326835957E-11
     6 1.7639075303E-15
     7 8.8920248946E-15
     8 -5.2245742498E-15
     9 1.4971741167E-16
    10 9.9015984663E-15
    11 8.6621557889E-01
    12 1.5854422207E-16
    13 -7.2015075784E-15
    14 -6.6015286411E-01
    15 6.5650088123E-15
    16 -1.9691675924E-14
    17 -7.7731976640E-01
    18 5.5880515377E-15
    19 1.4486020465E-16
    20 -1.1688682824E-16
    21 4.9182665848E-16
    22 6.6330713965E-16
    23 3.9206148157E-16
    24 8.0314601650E-11
   Sym= A
   Ene=     3.3553150671
  Spin= Alpha
 Occup= 0.0000000000
     1 -2.3162269030E-16
     2 -1.3807382940E-18
     3 2.2757619706E-16
     4 1.2203861145E-16
     5 1.4801172833E-01
     6 -1.3459433038E-16
     7 -1.0379464678E-15
     8 3.2890705312E-16
     9 4.5600596149E-16
    10 -6.9598446322E-16
    11 -2.0701862716E-11
    12 4.1128884420E-17
    13 4.2697212436E-16
    14 1.7821531727E-11
    15 -2.3617782007E-16
    16 -1.0582807738E+00
    17 -1.3096668746E-11
    18 -1.6252158849E-15
    19 -5.4344282050E-16
    20 7.3056772222E-16
    21 -7.4140321651E-17
    22 7.6439131483E-17
    23 3.9669866063E-16
    24 -1.4801172834E-01
   Sym= A
   Ene=     3.4726473748
  Spin= Alpha
 Occup= 0.0000000000
     1 -7.1091196698E-03
     2 -2.6930514678E-02
     3 6.5357463679E-02
     4 -2.4527855204E-02
     5 -6.3993856597E-16
     6 -1.3644854294E-01
     7 -6.7572173977E-01
     8 4.2014307168E-01
     9 5.0863008369E-12
    10 -8.5878272873E-01
    11 8.3653783812E-15
    12 6.2467817589E-12
    13 6.1281063955E-01
    14 -5.9525833235E-15
    15 -5.9635827413E-01
    16 1.2863462350E-15
    17 -1.0089059683E-14
    18 -4.9412074120E-01
    19 -2.0779126103E-12
    20 -7.1091196394E-03
    21 -2.6930514692E-02
    22 -6.5357463678E-02
    23 -2.4527855192E-02
    24 -1.8823899496E-16
   Sym= A
   Ene=     3.9110178273
  Spin= Alpha
 Occup= 0.0000000000
     1 -1.1946388383E-01
     2 -2.0266319749E-02
     3 -1.5518726396E-02
     4 -2.4598249905E-01
     5 3.4842232462E-17
     6 -7.3423872526E-02
     7 -3.7159605583E-01
     8 3.6767885027E-01
     9 9.5110868069E-12
    10 -6.9239049901E-01
    11 7.9849079599E-16
    12 -5.2075369379E-11
    13 5.3980784658E-01
    14 -5.7323383565E-16
    15 -2.2741759556E-01
    16 -1.0527436488E-15
    17 2.9829908365E-16
    18 9.7165117989E-01
    19 1.2263515278E-12
    20 -1.1946388396E-01
    21 -2.0266319758E-02
    22 1.5518726464E-02
    23 -2.4598249903E-01
    24 -5.1765111660E-17
   Sym= A
   Ene=     4.1133179467
  Spin= Alpha
 Occup= 0.0000000000
     1 4.0018482475E-01
     2 -1.1402120731E-01
     3 -2.1600348773E-01
     4 4.3698236779E-02
     5 -1.7336978492E-15
     6 7.7964027418E-12
     7 -5.3644941965E-12
     8 -1.5371292618E-10
     9 -5.9625054298E-01
    10 2.0757571019E-11
    11 -1.0211910129E-14
    12 3.0141730948E-01
    13 7.8618133950E-11
    14 9.1968336654E-15
    15 3.2613492013E-11
    16 -5.2224704289E-16
    17 -6.4592630917E-15
    18 -9.3278443674E-12
    19 1.0646097209E+00
    20 -4.0018482449E-01
    21 1.1402120740E-01
    22 -2.1600348769E-01
    23 -4.3698236733E-02
    24 -2.0037503859E-15
