[Molden Format]
[Atoms] AU
   H     1     1    1.48123726   -0.93019123   -0.00000000
   O     2     8   -0.00000000    0.11720081   -0.00000000
   H     3     1   -1.48123726   -0.93019123   -0.00000000
[GTO]
   1   0
   s     3  1.00
    1.3010000000E+01    1.9685000000E-02
    1.9620000000E+00    1.3797700000E-01
    4.4460000000E-01    4.7814800000E-01
   s     1  1.00
    1.2200000000E-01    1.0000000000E+00
   p     1  1.00
    7.2700000000E-01    1.0000000000E+00

   2   0
   s     8  1.00
    1.1720000000E+04    7.1000000000E-04
    1.7590000000E+03    5.4700000000E-03
    4.0080000000E+02    2.7837000000E-02
    1.1370000000E+02    1.0480000000E-01
    3.7030000000E+01    2.8306200000E-01
    1.3270000000E+01    4.4871900000E-01
    5.0250000000E+00    2.7095200000E-01
    1.0130000000E+00    1.5458000000E-02
   s     8  1.00
    1.1720000000E+04   -1.6000000000E-04
    1.7590000000E+03   -1.2630000000E-03
    4.0080000000E+02   -6.2670000000E-03
    1.1370000000E+02   -2.5716000000E-02
    3.7030000000E+01   -7.0924000000E-02
    1.3270000000E+01   -1.6541100000E-01
    5.0250000000E+00   -1.1695500000E-01
    1.0130000000E+00    5.5736800000E-01
   s     1  1.00
    3.0230000000E-01    1.0000000000E+00
   p     3  1.00
    1.7700000000E+01    4.3018000000E-02
    3.8540000000E+00    2.2891300000E-01
    1.0460000000E+00    5.0872800000E-01
   p     1  1.00
    2.7530000000E-01    1.0000000000E+00
   d     1  1.00
    1.1850000000E+00    1.0000000000E+00

   3   0
   s     3  1.00
    1.3010000000E+01    1.9685000000E-02
    1.9620000000E+00    1.3797700000E-01
    4.4460000000E-01    4.7814800000E-01
   s     1  1.00
    1.2200000000E-01    1.0000000000E+00
   p     1  1.00
    7.2700000000E-01    1.0000000000E+00

[5D]
[MO]
   Sym= A
   Ene=     0.0000000000
  Spin= Alpha
 Occup= 2.0000000000
     1 4.0707683579E-04
     2 -4.3257396181E-04
     3 -5.7760935706E-04
     4 4.5285838695E-04
     6 -1.0004001711E+00
     7 -2.3195636562E-03
     8 2.6910915011E-03
    10 2.4796816701E-03
    13 -4.8447307935E-04
    15 1.2428765413E-04
    18 -9.2411074086E-05
    20 4.0707683578E-04
    21 -4.3257396181E-04
    22 5.7760935706E-04
    23 4.5285838695E-04
   Sym= A
   Ene=     0.0000000000
  Spin= Alpha
 Occup= 1.9982470890
     1 -3.2313299241E-01
     2 -1.0496359351E-02
     3 3.8119143193E-02
     4 -1.8418259217E-02
     6 8.5981212435E-03
     7 -8.7135145543E-01
     8 -3.8169602946E-01
    10 1.0807685703E-01
    13 -1.0949207045E-02
    15 3.2573660347E-03
    18 -1.1420582771E-03
    20 -3.2313299241E-01
    21 -1.0496359351E-02
    22 -3.8119143193E-02
    23 -1.8418259217E-02
   Sym= A
   Ene=     0.0000000000
  Spin= Alpha
 Occup= 1.9915453490
     1 5.6223898526E-01
     2 8.6664434525E-02
     3 -2.5471945720E-02
     4 3.1569348341E-02
     9 7.0955412209E-01
    12 2.1415138534E-01
    19 -2.5831974927E-02
    20 -5.6223898526E-01
    21 -8.6664434525E-02
    22 -2.5471945720E-02
    23 -3.1569348341E-02
   Sym= A
   Ene=     0.0000000000
  Spin= Alpha
 Occup= 1.9927503527
     1 -3.3686909658E-01
     2 -4.0865701416E-02
     3 3.0439247710E-02
     4 9.2604568806E-03
     6 -1.8203671988E-03
     7 2.8295945456E-01
     8 3.3422369698E-01
    10 8.0348434495E-01
    13 3.7916297162E-01
    15 1.2767479579E-02
    18 1.2545092385E-02
    20 -3.3686909658E-01
    21 -4.0865701416E-02
    22 -3.0439247710E-02
    23 9.2604568806E-03
   Sym= A
   Ene=     0.0000000000
  Spin= Alpha
 Occup= 1.9900501611
     5 -3.0658189369E-02
    11 -9.1876804477E-01
    14 -4.9682408212E-01
    17 1.7642472006E-02
    24 -3.0658189369E-02
   Sym= A
   Ene=     0.0000000000
  Spin= Alpha
 Occup= 0.0007530862
     1 -1.1151818009E-01
     2 -8.3179448972E-01
     3 1.7971640345E-02
     4 -1.5815351628E-02
     6 -5.2394917943E-02
     7 1.4786665146E-01
     8 1.0111018949E+00
    10 -2.7069820354E-01
    13 -3.2608206055E-01
    15 -1.1844829033E-02
    18 -1.4482055234E-04
    20 -1.1151818009E-01
    21 -8.3179448972E-01
    22 -1.7971640345E-02
    23 -1.5815351628E-02
   Sym= A
   Ene=     0.0000000000
  Spin= Alpha
 Occup= 0.0016118735
     1 -3.9042202590E-02
     2 -1.4166998237E+00
     3 2.1496930946E-02
     4 -1.6975516151E-02
     9 4.1007254892E-01
    12 6.7690932841E-01
    19 -2.1325411189E-02
    20 3.9042202590E-02
    21 1.4166998237E+00
    22 2.1496930946E-02
    23 1.6975516151E-02
   Sym= A
   Ene=     0.0000000000
  Spin= Alpha
 Occup= 0.0036635885
     1 1.6023105732E+00
     2 -6.7221395520E-01
     3 7.4982280891E-02
     4 -1.6526765334E-01
     9 -4.1539069068E-01
    12 -4.4943683264E-01
    19 -1.1179822676E-01
    20 -1.6023105732E+00
    21 6.7221395520E-01
    22 7.4982280891E-02
    23 1.6526765334E-01
   Sym= A
   Ene=     0.0000000000
  Spin= Alpha
 Occup= 0.0021953965
     1 1.3967917039E+00
     2 -5.4305959627E-01
     3 2.8113813163E-01
     4 -3.2973743516E-02
     6 -5.5993673765E-02
     7 -4.7083409743E-01
     8 2.4401894866E-01
    10 4.1913471959E-01
    13 4.7864588126E-02
    15 -8.8642429191E-02
    18 6.2361088495E-02
    20 1.3967917039E+00
    21 -5.4305959627E-01
    22 -2.8113813163E-01
    23 -3.2973743516E-02
   Sym= A
   Ene=     0.0000000000
  Spin= Alpha
 Occup= 0.0041043491
     1 8.3027324560E-01
     2 1.3801600064E-01
     3 -1.1579817846E-01
     4 2.4014572577E-01
     6 9.2037754274E-03
     7 -1.5104821417E-01
     8 -7.6639319016E-01
    10 -1.1407258622E+00
    13 1.2515316782E+00
    15 7.5825296507E-03
    18 7.1856733245E-03
    20 8.3027324560E-01
    21 1.3801600064E-01
    22 1.1579817846E-01
    23 2.4014572577E-01
   Sym= A
   Ene=     0.0000000000
  Spin= Alpha
 Occup= 0.0081722548
     5 9.3581061622E-03
    11 -1.4108372005E+00
    14 1.0238229053E+00
    17 3.4495184755E-03
    24 9.3581061622E-03
   Sym= A
   Ene=     0.0000000000
  Spin= Alpha
 Occup= 0.0013021751
     1 -6.8339448968E-01
     2 -8.0409871788E-01
     3 3.2907359914E-01
     4 -1.5190848068E-01
     9 -1.0446524088E+00
    12 1.7806026938E+00
    19 -3.9932660881E-02
    20 6.8339448968E-01
    21 8.0409871788E-01
    22 3.2907359914E-01
    23 1.5190848068E-01
   Sym= A
   Ene=     0.0000000000
  Spin= Alpha
 Occup= 0.0007740037
     5 -6.8178946969E-01
    16 -1.3004843231E-01
    24 6.8178946969E-01
   Sym= A
   Ene=     0.0000000000
  Spin= Alpha
 Occup= 0.0007156432
     1 -4.2700601395E-01
     2 2.4498781871E-01
     3 2.6220672563E-01
     4 5.7597495245E-01
     6 2.5418173279E-01
     7 1.2584353892E+00
     8 -7.7566468483E-01
    10 2.2660243320E-01
    13 -6.6145349082E-01
    15 5.6215220224E-02
    18 1.0305674156E-01
    20 -4.2700601395E-01
    21 2.4498781871E-01
    22 -2.6220672563E-01
    23 5.7597495245E-01
   Sym= A
   Ene=     0.0000000000
  Spin= Alpha
 Occup= 0.0003407907
     5 -7.7341401971E-01
    11 2.3484819430E-02
    14 6.3823800561E-01
    17 1.6074100496E-01
    24 -7.7341401971E-01
   Sym= A
   Ene=     0.0000000000
  Spin= Alpha
 Occup= 0.0006919218
     1 1.3607028366E+00
     2 3.8032289970E-01
     3 -3.9908103878E-01
     4 -1.0583034459E-01
     6 7.0878291112E-01
     7 3.0652481049E+00
     8 -2.9465160105E+00
    10 1.3008038127E-01
    13 9.5720543916E-01
    15 -1.5196848164E-01
    18 -5.6194867533E-02
    20 1.3607028366E+00
    21 3.8032289970E-01
    22 3.9908103878E-01
    23 -1.0583034459E-01
   Sym= A
   Ene=     0.0000000000
  Spin= Alpha
 Occup= 0.0001164210
     1 7.5024195654E-01
     2 1.0823947279E-01
     3 4.5517565197E-01
     4 6.7885876718E-01
     9 1.2166186032E-01
    12 -1.0029238096E+00
    19 -2.5734678999E-02
    20 -7.5024195654E-01
    21 -1.0823947279E-01
    22 4.5517565197E-01
    23 -6.7885876718E-01
   Sym= A
   Ene=     0.0000000000
  Spin= Alpha
 Occup= 0.0003650692
     1 -5.4527225467E-01
     2 -3.2871427988E-01
     3 7.0675582712E-01
     4 -5.7548836652E-01
     9 1.2465891086E+00
    12 2.2294318323E-01
    19 1.4324036562E-01
    20 5.4527225467E-01
    21 3.2871427988E-01
    22 7.0675582712E-01
    23 5.7548836652E-01
   Sym= A
   Ene=     0.0000000000
  Spin= Alpha
 Occup= 0.0003477365
     1 8.3456699996E-01
     2 1.6171787678E-01
     3 -7.8725784964E-01
     4 4.8327852958E-01
     6 -2.7045401895E-01
     7 -1.4074000267E+00
     8 -8.2032391592E-01
    10 9.2410572656E-01
    13 2.0036174950E-01
    15 -2.1742406025E-01
    18 5.0023292765E-02
    20 8.3456699996E-01
    21 1.6171787678E-01
    22 7.8725784964E-01
    23 4.8327852958E-01
   Sym= A
   Ene=     0.0000000000
  Spin= Alpha
 Occup= 0.0007623246
     5 -3.8388152674E-01
    11 -1.8007917055E-02
    14 3.0000436939E-01
    17 -1.0361563989E+00
    24 -3.8388152674E-01
   Sym= A
   Ene=     0.0000000000
  Spin= Alpha
 Occup= 0.0005608812
     5 -3.7562060267E-01
    16 1.0700733182E+00
    24 3.7562060267E-01
   Sym= A
   Ene=     0.0000000000
  Spin= Alpha
 Occup= 0.0004755055
     1 6.7172065604E-01
     2 6.1848914005E-02
     3 -4.0714147784E-01
     4 -2.8222002880E-01
     6 8.8917422873E-02
     7 3.0000860868E-01
     8 -7.4299536601E-01
    10 8.7274400694E-02
    13 5.9517214817E-01
    15 5.3694900510E-01
    18 9.3444821133E-01
    20 6.7172065604E-01
    21 6.1848914005E-02
    22 4.0714147784E-01
    23 -2.8222002880E-01
   Sym= A
   Ene=     0.0000000000
  Spin= Alpha
 Occup= 0.0002383126
     1 2.0202788199E+00
     2 1.8714233172E-01
     3 -6.1854760321E-01
     4 5.0483955546E-01
     6 1.2740026526E-01
     7 2.8628021357E-01
     8 -2.1827496139E+00
    10 5.6075593992E-01
    13 8.0203265807E-01
    15 1.0025867154E+00
    18 -6.4964316473E-01
    20 2.0202788199E+00
    21 1.8714233172E-01
    22 6.1854760321E-01
    23 5.0483955546E-01
   Sym= A
   Ene=     0.0000000000
  Spin= Alpha
 Occup= 0.0002157146
     1 -1.8384885603E+00
     2 -2.8571598293E-01
     3 6.1907382941E-01
     4 -4.4346212864E-01
     9 6.7866354796E-01
    12 1.1756400839E+00
    19 -1.3109134463E+00
    20 1.8384885603E+00
    21 2.8571598293E-01
    22 6.1907382941E-01
    23 4.4346212864E-01
