[Molden Format]
[Atoms] AU
  Be     1     4    0.00000000    0.00000000    0.00000000
[GTO]
   1   0
   s     8  1.00
    2.9400000000E+03    6.8000000000E-04
    4.4120000000E+02    5.2360000000E-03
    1.0050000000E+02    2.6606000000E-02
    2.8430000000E+01    9.9993000000E-02
    9.1690000000E+00    2.6970200000E-01
    3.1960000000E+00    4.5146900000E-01
    1.1590000000E+00    2.9507400000E-01
    1.8110000000E-01    1.2587000000E-02
   s     8  1.00
    2.9400000000E+03   -1.2300000000E-04
    4.4120000000E+02   -9.6600000000E-04
    1.0050000000E+02   -4.8310000000E-03
    2.8430000000E+01   -1.9314000000E-02
    9.1690000000E+00   -5.3280000000E-02
    3.1960000000E+00   -1.2072300000E-01
    1.1590000000E+00   -1.3343500000E-01
    1.8110000000E-01    5.3076700000E-01
   s     1  1.00
    5.8900000000E-02    1.0000000000E+00
   p     3  1.00
    3.6190000000E+00    2.9111000000E-02
    7.1100000000E-01    1.6936500000E-01
    1.9510000000E-01    5.1345800000E-01
   p     1  1.00
    6.0180000000E-02    1.0000000000E+00
   d     1  1.00
    2.3800000000E-01    1.0000000000E+00

[5D]
[MO]
   Sym= A
   Ene=     0.0000000000
  Spin= Alpha
 Occup= 1.9999869602
     1 -9.9995006785E-01
     2 1.3085340568E-02
     3 1.1573033966E-02
   Sym= A
   Ene=     0.0000000000
  Spin= Alpha
 Occup= 1.8159938856
     1 2.7100106928E-02
     2 1.0757730580E+00
     3 5.4350514992E-01
   Sym= A
   Ene=     0.0000000000
  Spin= Alpha
 Occup= 0.0601998702
     4 -3.1617163802E-01
     5 1.1868929472E+00
     6 -2.8631164749E-02
     7 -7.9778070388E-02
     8 2.9948299430E-01
     9 -7.2243634621E-03
   Sym= A
   Ene=     0.0000000000
  Spin= Alpha
 Occup= 0.0601998702
     4 1.1673712452E+00
     5 3.0539282389E-01
     6 -2.3125465705E-01
     7 2.9455717662E-01
     8 7.7058303851E-02
     9 -5.8351376425E-02
   Sym= A
   Ene=     0.0000000000
  Spin= Alpha
 Occup= 0.0601998702
     4 2.1628450802E-01
     5 8.6714886188E-02
     6 1.2063169808E+00
     7 5.4574030891E-02
     8 2.1880350362E-02
     9 3.0438416666E-01
   Sym= A
   Ene=     0.0000000000
  Spin= Alpha
 Occup= 0.0027220856
     1 6.2183182279E-01
     2 3.4081319850E+00
     3 -1.6520181381E+00
    10 1.2252428799E-10
    12 -1.1132871683E-10
    13 -1.3441079796E-10
    14 1.8399193413E-10
   Sym= A
   Ene=     0.0000000000
  Spin= Alpha
 Occup= 0.0001342622
     1 -1.0724318304E-10
     2 -5.8723972641E-10
     3 2.8924813008E-10
    10 3.7115042853E-02
    11 4.4774244549E-02
    12 1.2406666454E-01
    13 2.4817864080E-03
    14 9.9056501256E-01
   Sym= A
   Ene=     0.0000000000
  Spin= Alpha
 Occup= 0.0001342622
     1 8.6627453670E-11
     2 4.7352400985E-10
     3 -2.3250396234E-10
    10 -6.1659577891E-02
    11 -3.0205543482E-03
    12 -1.4525409890E-02
    13 9.9798540438E-01
    14 1.7657331289E-03
   Sym= A
   Ene=     0.0000000000
  Spin= Alpha
 Occup= 0.0001342622
    10 2.9722251553E-03
    11 -9.8783829876E-01
    12 -1.4230618264E-01
    13 -4.9877960658E-03
    14 6.2375745746E-02
   Sym= A
   Ene=     0.0000000000
  Spin= Alpha
 Occup= 0.0001342622
     1 -6.7195673267E-11
     2 -3.6906071595E-10
     3 1.7878610898E-10
    10 9.9739468560E-01
    11 1.6799217172E-03
    12 -8.9760066448E-03
    13 6.1562060523E-02
    14 -3.6476883339E-02
   Sym= A
   Ene=     0.0000000000
  Spin= Alpha
 Occup= 0.0001342622
     1 -8.3681802700E-11
     2 -4.5840953823E-10
     3 2.2566510748E-10
    10 -3.9467799661E-03
    11 1.4885837782E-01
    12 -9.8186804455E-01
    13 -1.4290135447E-02
    14 1.1643256162E-01
   Sym= A
   Ene=     0.0000000000
  Spin= Alpha
 Occup= 0.0000087157
     4 -4.5357039709E-01
     5 1.2669972031E+00
     6 6.6578964308E-01
     7 3.6257239649E-01
     8 -1.0128046609E+00
     9 -5.3221495107E-01
   Sym= A
   Ene=     0.0000000000
  Spin= Alpha
 Occup= 0.0000087157
     4 -1.2576256851E+00
     5 -1.9352974785E-02
     6 -8.1993107275E-01
     7 1.0053133134E+00
     8 1.5470265331E-02
     9 6.5543160664E-01
   Sym= A
   Ene=     0.0000000000
  Spin= Alpha
 Occup= 0.0000087157
     4 -6.8332671312E-01
     5 -8.0537408457E-01
     6 1.0671087348E+00
     7 5.4623362889E-01
     8 6.4379512872E-01
     9 -8.5301901101E-01
