[Molden Format]
[Atoms] AU
   H     1     1    0.00000000    0.00000000   -0.70108839
   H     2     1    0.00000000    0.00000000    0.70108839
[GTO]
   1   0
   s     3  1.00
    1.3010000000E+01    1.9685000000E-02
    1.9620000000E+00    1.3797700000E-01
    4.4460000000E-01    4.7814800000E-01
   s     1  1.00
    1.2200000000E-01    1.0000000000E+00
   p     1  1.00
    7.2700000000E-01    1.0000000000E+00

   2   0
   s     3  1.00
    1.3010000000E+01    1.9685000000E-02
    1.9620000000E+00    1.3797700000E-01
    4.4460000000E-01    4.7814800000E-01
   s     1  1.00
    1.2200000000E-01    1.0000000000E+00
   p     1  1.00
    7.2700000000E-01    1.0000000000E+00

[MO]
   Sym= A
   Ene=     0.0000000000
  Spin= Alpha
 Occup= 1.9663597348
     1 6.9658204807E-01
     2 1.6909851092E-01
     3 7.9394199471E-18
     4 -5.9576893126E-18
     5 1.9490284869E-02
     6 6.9658204807E-01
     7 1.6909851092E-01
     8 2.3697984937E-18
     9 -4.5034155675E-18
    10 -1.9490284869E-02
   Sym= A
   Ene=     0.0000000000
  Spin= Alpha
 Occup= 0.0205247449
     1 1.6461017527E+00
     2 2.4026334072E-01
     3 4.0217589682E-18
     4 4.9332830210E-17
     5 -3.0256381364E-02
     6 -1.6461017527E+00
     7 -2.4026334072E-01
     8 -1.0726326862E-17
     9 3.7485607619E-17
    10 -3.0256381364E-02
   Sym= A
   Ene=     0.0000000000
  Spin= Alpha
 Occup= 0.0060982227
     1 -8.7400027338E-01
     2 6.1361060962E-01
     3 -8.4504748526E-17
     4 9.2668971606E-17
     5 -2.5025868064E-01
     6 -8.7400027338E-01
     7 6.1361060962E-01
     8 -7.1674686020E-17
     9 5.9641555982E-17
    10 2.5025868064E-01
   Sym= A
   Ene=     0.0000000000
  Spin= Alpha
 Occup= 0.0031684539
     1 -4.8167456285E-17
     2 3.3149271598E-16
     3 1.7188673634E-01
     4 5.5332799345E-01
     5 8.9179118490E-17
     6 1.5183871902E-16
     7 -4.2601703555E-16
     8 1.7188673634E-01
     9 5.5332799345E-01
    10 2.8868858308E-17
   Sym= A
   Ene=     0.0000000000
  Spin= Alpha
 Occup= 0.0031684539
     1 -1.8910561951E-16
     2 -1.2948272131E-16
     3 -5.5332799345E-01
     4 1.7188673634E-01
     5 -1.1787105701E-16
     6 4.4246975923E-16
     7 -6.9133923064E-17
     8 -5.5332799345E-01
     9 1.7188673634E-01
    10 -1.8994805009E-16
   Sym= A
   Ene=     0.0000000000
  Spin= Alpha
 Occup= 0.0002008885
     1 -1.1015877439E+00
     2 4.4917061088E-01
     3 -1.3675445185E-16
     4 1.4247653529E-16
     5 6.8130716232E-01
     6 -1.1015877439E+00
     7 4.4917061088E-01
     8 1.4598202315E-16
     9 -1.4521584614E-16
    10 -6.8130716232E-01
   Sym= A
   Ene=     0.0000000000
  Spin= Alpha
 Occup= 0.0001564670
     1 -1.1161031904E-15
     2 5.7186860322E-16
     3 -9.7986391795E-01
     4 1.3788028486E-01
     5 -5.5844492061E-16
     6 1.4961263249E-15
     7 -7.4006640674E-16
     8 9.7986391795E-01
     9 -1.3788028486E-01
    10 -3.3488334778E-16
   Sym= A
   Ene=     0.0000000000
  Spin= Alpha
 Occup= 0.0001564670
     1 -2.5501302082E-15
     2 1.5772742244E-15
     3 1.3788028486E-01
     4 9.7986391795E-01
     5 -9.2754210365E-16
     6 2.7991352585E-15
     7 -1.6789178287E-15
     8 -1.3788028486E-01
     9 -9.7986391795E-01
    10 -7.6309823956E-16
   Sym= A
   Ene=     0.0000000000
  Spin= Alpha
 Occup= 0.0001537135
     1 3.3993924251E+00
     2 -1.9011238213E+00
     3 -1.7521232267E-16
     4 8.5373556926E-16
     5 1.0996097076E+00
     6 -3.3993924251E+00
     7 1.9011238213E+00
     8 2.4688767730E-16
     9 -8.2708451038E-16
    10 1.0996097076E+00
   Sym= A
   Ene=     0.0000000000
  Spin= Alpha
 Occup= 0.0000128539
     1 2.8404729761E+00
     2 1.6599578757E+00
     3 6.7032362457E-17
     4 5.0556942200E-18
     5 1.7442549166E+00
     6 -2.8404729761E+00
     7 -1.6599578757E+00
     8 2.8999032656E-17
     9 -8.0785509589E-19
    10 1.7442549166E+00
