[Molden Format]
[Atoms] AU
   O     1     8    0.00000000    0.00000000    0.00000000
   H     2     1    1.49519578    1.15561862    0.00000000
   H     3     1   -1.87314101    1.72253646    0.00000000
[GTO]
   1   0
   s     3  1.00
    3.2203700000E+02    5.9239400000E-02
    4.8430800000E+01    3.5150000000E-01
    1.0420600000E+01    7.0765800000E-01
   s     2  1.00
    7.4029400000E+00   -4.0445300000E-01
    1.5762000000E+00    1.2215600000E+00
   p     2  1.00
    7.4029400000E+00    2.4458600000E-01
    1.5762000000E+00    8.5395500000E-01
   s     1  1.00
    3.7368400000E-01    1.0000000000E+00
   p     1  1.00
    3.7368400000E-01    1.0000000000E+00

   2   0
   s     2  1.00
    5.4471780000E+00    1.5628500000E-01
    8.2454700000E-01    9.0469100000E-01
   s     1  1.00
    1.8319200000E-01    1.0000000000E+00

   3   0
   s     2  1.00
    5.4471780000E+00    1.5628500000E-01
    8.2454700000E-01    9.0469100000E-01
   s     1  1.00
    1.8319200000E-01    1.0000000000E+00

[MO]
   Sym= A
   Ene=     0.0000000000
  Spin= Alpha
 Occup= 1.9999841745
     1 -9.8855162284E-01
     2 -8.8563869922E-02
     3 -2.0815981649E-03
     4 -5.3342023095E-03
     5 2.6240019528E-16
     6 5.2201515650E-02
     7 1.5458287601E-03
     8 2.5458652937E-03
     9 2.9907922344E-16
    10 -1.9641100895E-03
    11 -8.7575104391E-03
    12 -7.5634738734E-04
    13 -3.4814379168E-03
   Sym= A
   Ene=     0.0000000000
  Spin= Alpha
 Occup= 1.9973817096
     1 2.2405445187E-01
     2 -2.4125404668E-01
     3 6.1713621148E-02
     4 1.3141375668E-01
     5 3.6836951754E-14
     6 -8.3096025982E-01
     7 6.0406479986E-02
     8 1.3767965424E-01
     9 4.2870312631E-14
    10 4.6665109576E-03
    11 7.4057499297E-02
    12 -1.7019681596E-02
    13 1.2988512178E-02
   Sym= A
   Ene=     0.0000000000
  Spin= Alpha
 Occup= 1.9938827932
     1 -1.5112998527E-14
     2 1.6889851551E-14
     3 -3.5111721598E-15
     4 -8.3792959894E-15
     5 5.3240953483E-01
     6 5.7554770682E-14
     7 -3.5455277038E-15
     8 -8.7305906814E-15
     9 6.2161379606E-01
    10 2.5177112225E-16
    11 -4.7989676526E-15
    12 1.0106360427E-15
    13 -1.1036741469E-15
   Sym= A
   Ene=     0.0000000000
  Spin= Alpha
 Occup= 1.9744934650
     1 -4.0835090703E-02
     2 4.9186699569E-02
     3 2.9115300427E-01
     4 2.7904364640E-01
     5 -1.1589270084E-15
     6 2.8089663263E-02
     7 2.7772711171E-01
     8 2.9525050309E-01
     9 -1.4234728385E-15
    10 2.9494268515E-01
    11 2.2031443608E-01
    12 -1.0868942310E-02
    13 -3.6144620608E-02
   Sym= A
   Ene=     0.0000000000
  Spin= Alpha
 Occup= 1.9064540375
     1 3.0772351533E-04
     2 -1.8644475248E-03
     3 -2.4990074539E-01
     4 2.8007096245E-01
     5 4.5363015472E-17
     6 -6.0324282870E-02
     7 -2.5659345483E-01
     8 3.2724488114E-01
     9 1.1643113963E-16
    10 -3.0259407143E-02
    11 -3.6285875917E-02
    12 2.4262237360E-01
    13 3.7867592571E-01
   Sym= A
   Ene=     0.0000000000
  Spin= Alpha
 Occup= 0.0939042007
     1 -5.0085908285E-02
     2 5.0388752358E-02
     3 -3.5923750999E-01
     4 3.6067579100E-01
     5 -6.7832096627E-16
     6 2.6739102234E-01
     7 -3.1184434535E-01
     8 2.5443403304E-01
     9 4.1983998630E-16
    10 4.2698752996E-03
    11 3.2244188155E-02
    12 -4.4133238417E-01
    13 -5.8217987688E-01
   Sym= A
   Ene=     0.0000000000
  Spin= Alpha
 Occup= 0.0249077549
     1 -8.1146792042E-02
     2 1.5827224176E-01
     3 4.8210812069E-01
     4 4.1879388992E-01
     5 -2.9539843554E-15
     6 3.9133271433E-01
     7 2.4561286402E-01
     8 1.4363005128E-01
     9 2.6084299201E-15
    10 -6.4831688310E-01
    11 -5.1017823599E-01
    12 1.5030432366E-03
    13 3.7766644275E-02
   Sym= A
   Ene=     0.0000000000
  Spin= Alpha
 Occup= 0.0053755290
     1 5.7053503942E-15
     2 -6.8135529605E-14
     3 6.9087926840E-15
     4 1.6690866355E-14
     5 -1.0235664640E+00
     6 6.0335511628E-14
     7 -8.1905640671E-15
     8 -1.4962792719E-14
     9 9.7197908580E-01
    10 -4.7653252754E-15
    11 1.5840135416E-15
    12 -4.2614564551E-15
    13 -4.5560594349E-15
   Sym= A
   Ene=     0.0000000000
  Spin= Alpha
 Occup= 0.0014268208
     1 1.0988380120E-01
     2 -1.2580038867E+00
     3 2.1268172195E-01
     4 4.7899877491E-01
     5 4.9550018171E-14
     6 1.0785689334E+00
     7 -2.6361919743E-01
     8 -4.6463919475E-01
     9 -4.6958064153E-14
    10 -1.4890891571E-02
    11 5.4963542597E-02
    12 -5.3690562028E-02
    13 -9.5123914243E-02
   Sym= A
   Ene=     0.0000000000
  Spin= Alpha
 Occup= 0.0010538195
     1 1.4973085214E-03
     2 -9.9632102021E-02
     3 -1.5355726450E-01
     4 -1.3911446327E-01
     5 3.4153393896E-15
     6 -1.1376794418E-01
     7 2.2695108917E-01
     8 2.6990823783E-01
     9 -3.3422000584E-15
    10 -1.2246276422E+00
    11 1.2366423409E+00
    12 -2.4483695457E-02
    13 -1.7554826403E-01
   Sym= A
   Ene=     0.0000000000
  Spin= Alpha
 Occup= 0.0005600128
     1 4.7290761412E-03
     2 1.1448140324E-01
     3 1.8630432073E-02
     4 -3.6129537557E-03
     5 7.7251152869E-16
     6 -3.6519152616E-01
     7 1.4069227345E-01
     8 -9.3911852308E-02
     9 -7.0276332775E-16
    10 2.7547703944E-02
    11 -1.5064385262E-01
    12 -1.2100310769E+00
    13 1.3638570571E+00
   Sym= A
   Ene=     0.0000000000
  Spin= Alpha
 Occup= 0.0003523919
     1 9.8583256342E-03
     2 -3.0035238211E-01
     3 7.4124036426E-01
     4 -6.2909700763E-01
     5 2.2017165374E-15
     6 3.6840379989E-01
     7 -9.3773634931E-01
     8 7.4032043513E-01
     9 -1.9524929538E-15
    10 -1.6363400321E-02
    11 1.4356077957E-01
    12 -2.4485387421E-01
    13 -3.9855771966E-01
   Sym= A
   Ene=     0.0000000000
  Spin= Alpha
 Occup= 0.0002232906
     1 1.5332544875E-02
     2 -9.0142346251E-01
     3 -5.1808175349E-01
     4 -4.9699848587E-01
     5 6.6636370009E-15
     6 1.4154224006E+00
     7 9.7842831007E-01
     8 8.5201063652E-01
     9 -6.4432809348E-15
    10 -2.4701494151E-01
    11 -1.0659292335E+00
    12 -1.1156058268E-01
    13 9.0862566660E-02
