[Molden Format]
[Atoms] AU
  Ne     1    10    0.00000000    0.00000000    0.00000000
[GTO]
   1   0
   s     8  1.00
    1.7880000000E+04    7.3800000000E-04
    2.6830000000E+03    5.6770000000E-03
    6.1150000000E+02    2.8883000000E-02
    1.7350000000E+02    1.0854000000E-01
    5.6640000000E+01    2.9090700000E-01
    2.0420000000E+01    4.4832400000E-01
    7.8100000000E+00    2.5802600000E-01
    1.6530000000E+00    1.5063000000E-02
   s     8  1.00
    1.7880000000E+04   -1.7200000000E-04
    2.6830000000E+03   -1.3570000000E-03
    6.1150000000E+02   -6.7370000000E-03
    1.7350000000E+02   -2.7663000000E-02
    5.6640000000E+01   -7.6208000000E-02
    2.0420000000E+01   -1.7522700000E-01
    7.8100000000E+00   -1.0703800000E-01
    1.6530000000E+00    5.6705000000E-01
   s     1  1.00
    4.8690000000E-01    1.0000000000E+00
   p     3  1.00
    2.8390000000E+01    4.6087000000E-02
    6.2700000000E+00    2.4018100000E-01
    1.6950000000E+00    5.0874400000E-01
   p     1  1.00
    4.3170000000E-01    1.0000000000E+00
   d     1  1.00
    2.2020000000E+00    1.0000000000E+00

[5D]
[MO]
   Sym= A
   Ene=     0.0000000000
  Spin= Alpha
 Occup= 1.9999958458
     1 9.9968582143E-01
     2 -2.4713287111E-02
     3 -1.6014772230E-02
   Sym= A
   Ene=     0.0000000000
  Spin= Alpha
 Occup= 1.9987899619
     1 -2.4133499255E-02
     2 -9.9714822618E-01
     3 -5.6629237084E-01
   Sym= A
   Ene=     0.0000000000
  Spin= Alpha
 Occup= 1.9932998090
     4 8.3278615276E-01
     5 4.9164085626E-01
     6 -2.5363193911E-01
     7 3.7969248379E-01
     8 2.2415398867E-01
     9 -1.1563849928E-01
   Sym= A
   Ene=     0.0000000000
  Spin= Alpha
 Occup= 1.9932998090
     4 -4.7705160015E-01
     5 8.7031049603E-01
     6 1.2064029015E-01
     7 -2.1750230399E-01
     8 3.9680097082E-01
     9 5.5003569954E-02
   Sym= A
   Ene=     0.0000000000
  Spin= Alpha
 Occup= 1.9932998090
     4 2.8011009063E-01
     5 2.0532346829E-02
     6 9.5952562664E-01
     7 1.2771069223E-01
     8 9.3613201217E-03
     9 4.3747685673E-01
   Sym= A
   Ene=     0.0000000000
  Spin= Alpha
 Occup= 0.0050358425
     4 -6.2087919768E-01
     5 1.1327028055E+00
     6 1.5701246447E-01
     7 5.0007703961E-01
     8 -9.1231703018E-01
     9 -1.2646313278E-01
   Sym= A
   Ene=     0.0000000000
  Spin= Alpha
 Occup= 0.0050358425
     4 -1.0838651456E+00
     5 -6.3986700928E-01
     6 3.3010012775E-01
     7 8.7298153225E-01
     8 5.1537046327E-01
     9 -2.6587377268E-01
   Sym= A
   Ene=     0.0000000000
  Spin= Alpha
 Occup= 0.0050358425
     4 -3.6456125109E-01
     5 -2.6722697208E-02
     6 -1.2488156507E+00
     7 2.9362992332E-01
     8 2.1523361327E-02
     9 1.0058382306E+00
   Sym= A
   Ene=     0.0000000000
  Spin= Alpha
 Occup= 0.0011485933
     1 -3.5874180089E-01
     2 -1.7204247373E+00
     3 8.7771365700E-01
    10 -7.1984343513E-01
    11 -3.8026465095E-01
    12 -2.7873772447E-02
    13 -5.5206264665E-02
    14 -8.1370675982E-03
   Sym= A
   Ene=     0.0000000000
  Spin= Alpha
 Occup= 0.0011485933
     1 3.5874180081E-01
     2 1.7204247369E+00
     3 -8.7771365681E-01
    10 -3.2942779977E-01
    11 -2.9883954064E-01
    12 -1.7642191384E-01
    13 3.1962301962E-01
    14 5.7927139930E-01
   Sym= A
   Ene=     0.0000000000
  Spin= Alpha
 Occup= 0.0011485933
     1 -3.5874180081E-01
     2 -1.7204247369E+00
     3 8.7771365681E-01
    10 3.9041563551E-01
    11 8.1425110393E-02
    12 -1.4854814139E-01
    13 3.7482928430E-01
    14 5.8740846690E-01
   Sym= A
   Ene=     0.0000000000
  Spin= Alpha
 Occup= 0.0009204860
    10 4.2170307907E-01
    11 -7.2834603778E-01
    12 -4.6673379083E-01
    13 -2.2327267635E-01
    14 -1.5487880049E-01
   Sym= A
   Ene=     0.0000000000
  Spin= Alpha
 Occup= 0.0009204860
    10 2.0058350147E-01
    11 -4.2413191613E-01
    12 8.3792032358E-01
    13 -1.5156124732E-01
    14 2.3408779614E-01
   Sym= A
   Ene=     0.0000000000
  Spin= Alpha
 Occup= 0.0009204860
    10 -5.3020347408E-02
    11 2.2155776346E-01
    12 -1.6149585335E-01
    13 -8.2551493118E-01
    14 4.9045406304E-01
