[Molden Format]
[Atoms] AU
   H     1     1    1.48123726   -0.93019123   -0.00000000
   O     2     8   -0.00000000    0.11720081   -0.00000000
   H     3     1   -1.48123726   -0.93019123   -0.00000000
[GTO]
   1   0
   s     3  1.00
    1.3010000000E+01    1.9685000000E-02
    1.9620000000E+00    1.3797700000E-01
    4.4460000000E-01    4.7814800000E-01
   s     1  1.00
    1.2200000000E-01    1.0000000000E+00
   p     1  1.00
    7.2700000000E-01    1.0000000000E+00

   2   0
   s     8  1.00
    1.1720000000E+04    7.1000000000E-04
    1.7590000000E+03    5.4700000000E-03
    4.0080000000E+02    2.7837000000E-02
    1.1370000000E+02    1.0480000000E-01
    3.7030000000E+01    2.8306200000E-01
    1.3270000000E+01    4.4871900000E-01
    5.0250000000E+00    2.7095200000E-01
    1.0130000000E+00    1.5458000000E-02
   s     8  1.00
    1.1720000000E+04   -1.6000000000E-04
    1.7590000000E+03   -1.2630000000E-03
    4.0080000000E+02   -6.2670000000E-03
    1.1370000000E+02   -2.5716000000E-02
    3.7030000000E+01   -7.0924000000E-02
    1.3270000000E+01   -1.6541100000E-01
    5.0250000000E+00   -1.1695500000E-01
    1.0130000000E+00    5.5736800000E-01
   s     1  1.00
    3.0230000000E-01    1.0000000000E+00
   p     3  1.00
    1.7700000000E+01    4.3018000000E-02
    3.8540000000E+00    2.2891300000E-01
    1.0460000000E+00    5.0872800000E-01
   p     1  1.00
    2.7530000000E-01    1.0000000000E+00
   d     1  1.00
    1.1850000000E+00    1.0000000000E+00

   3   0
   s     3  1.00
    1.3010000000E+01    1.9685000000E-02
    1.9620000000E+00    1.3797700000E-01
    4.4460000000E-01    4.7814800000E-01
   s     1  1.00
    1.2200000000E-01    1.0000000000E+00
   p     1  1.00
    7.2700000000E-01    1.0000000000E+00

[5D]
[MO]
   Sym= A
   Ene=   -20.5480410709
  Spin= Alpha
 Occup= 2.0000000000
     1 4.0707683608E-04
     2 -4.3257396180E-04
     3 -5.7760935716E-04
     4 4.5285838702E-04
     5 1.9785145335E-16
     6 -1.0004001711E+00
     7 -2.3195636566E-03
     8 2.6910915009E-03
     9 6.9405583063E-16
    10 2.4796816703E-03
    11 -1.4938108666E-16
    12 3.7394979146E-16
    13 -4.8447307926E-04
    14 -1.7932428797E-16
    15 1.2428765420E-04
    16 -4.0651131551E-17
    17 9.5872640115E-17
    18 -9.2411074116E-05
    19 -2.5174583459E-16
    20 4.0707683608E-04
    21 -4.3257396180E-04
    22 5.7760935716E-04
    23 4.5285838702E-04
    24 4.3559177598E-17
   Sym= A
   Ene=    -1.3313857569
  Spin= Alpha
 Occup= 2.0000000000
     1 -3.2313299244E-01
     2 -1.0496359350E-02
     3 3.8119143195E-02
     4 -1.8418259218E-02
     5 -1.0246898462E-17
     6 8.5981212448E-03
     7 -8.7135145543E-01
     8 -3.8169602944E-01
     9 -8.8756855197E-16
    10 1.0807685704E-01
    11 3.7892153076E-18
    12 -1.5438346012E-15
    13 -1.0949207050E-02
    14 2.4019768321E-18
    15 3.2573660350E-03
    16 -6.0462625509E-19
    17 -1.5457250547E-19
    18 -1.1420582773E-03
    19 4.7924994778E-16
    20 -3.2313299244E-01
    21 -1.0496359350E-02
    22 -3.8119143195E-02
    23 -1.8418259218E-02
    24 -5.2546611019E-18
   Sym= A
   Ene=    -0.7068356529
  Spin= Alpha
 Occup= 2.0000000000
     1 -5.6223898527E-01
     2 -8.6664434519E-02
     3 2.5471945720E-02
     4 -3.1569348342E-02
     5 -4.6119754715E-17
     6 1.3990310459E-16
     7 1.7688794054E-15
     8 -7.3645869588E-16
     9 -7.0955412209E-01
    10 4.4729731897E-17
    11 -1.1476715449E-16
    12 -2.1415138533E-01
    13 6.2746854878E-16
    14 -1.2815392075E-16
    15 8.9291973538E-17
    16 1.8477705721E-18
    17 4.7027410910E-18
    18 -1.4645413568E-16
    19 2.5831974928E-02
    20 5.6223898527E-01
    21 8.6664434519E-02
    22 2.5471945720E-02
    23 3.1569348342E-02
    24 6.0312917691E-18
   Sym= A
   Ene=    -0.5559557000
  Spin= Alpha
 Occup= 2.0000000000
     1 3.3686909658E-01
     2 4.0865701409E-02
     3 -3.0439247710E-02
     4 -9.2604568817E-03
     5 -3.4848946082E-17
     6 1.8203671988E-03
     7 -2.8295945456E-01
     8 -3.3422369699E-01
     9 -4.7023499442E-16
    10 -8.0348434496E-01
    11 2.9229717150E-17
    12 -6.8614871163E-16
    13 -3.7916297161E-01
    14 -7.6918691973E-17
    15 -1.2767479579E-02
    16 6.0080751811E-18
    17 -6.5416046462E-19
    18 -1.2545092385E-02
    19 -1.8682625083E-16
    20 3.3686909658E-01
    21 4.0865701409E-02
    22 3.0439247710E-02
    23 -9.2604568817E-03
    24 -3.3958281847E-18
   Sym= A
   Ene=    -0.4910781251
  Spin= Alpha
 Occup= 2.0000000000
     1 2.2005622371E-16
     2 -2.4315343666E-17
     3 2.0141706597E-17
     4 -1.0758763718E-17
     5 -3.0658189371E-02
     6 2.9886117183E-16
     7 -4.2200635442E-16
     8 -4.2834988934E-16
     9 8.6763360223E-16
    10 5.6846434597E-16
    11 -9.1876804477E-01
    12 -8.4250833301E-17
    13 -9.9719965423E-17
    14 -4.9682408212E-01
    15 -6.2210620240E-16
    16 2.0278839382E-16
    17 1.7642472006E-02
    18 -2.0273709817E-17
    19 5.4082025301E-16
    20 -1.0907856610E-16
    21 4.2548758053E-16
    22 5.9296289852E-16
    23 2.4795325553E-16
    24 -3.0658189371E-02
   Sym= A
   Ene=     0.1859179322
  Spin= Alpha
 Occup= 0.0000000000
     1 1.1151818008E-01
     2 8.3179448974E-01
     3 -1.7971640348E-02
     4 1.5815351629E-02
     5 4.3162854766E-17
     6 5.2394917943E-02
     7 -1.4786665146E-01
     8 -1.0111018949E+00
     9 2.6920953431E-15
    10 2.7069820352E-01
    11 -1.3194028400E-16
    12 5.0603467482E-15
    13 3.2608206054E-01
    14 1.3489365181E-16
    15 1.1844829034E-02
    16 7.5492583422E-18
    17 -1.9174528654E-18
    18 1.4482055126E-04
    19 2.0307201177E-16
    20 1.1151818008E-01
    21 8.3179448974E-01
    22 1.7971640348E-02
    23 1.5815351629E-02
    24 -3.0141071521E-18
   Sym= A
   Ene=     0.2552792906
  Spin= Alpha
 Occup= 0.0000000000
     1 3.9042202579E-02
     2 1.4166998237E+00
     3 -2.1496930948E-02
     4 1.6975516154E-02
     5 9.0114707772E-17
     6 7.1175704461E-16
     7 -1.1125474434E-15
     8 -1.2274311598E-14
     9 -4.1007254890E-01
    10 6.2006590843E-15
    11 -3.0120601316E-16
    12 -6.7690932841E-01
    13 4.4934844461E-15
    14 -1.1678308600E-16
    15 5.8923401288E-16
    16 1.4199896782E-17
    17 -1.8455822430E-17
    18 -2.0606847938E-16
    19 2.1325411191E-02
    20 -3.9042202579E-02
    21 -1.4166998237E+00
    22 -2.1496930948E-02
    23 -1.6975516154E-02
    24 -3.2208102067E-17
   Sym= A
   Ene=     0.8054310243
  Spin= Alpha
 Occup= 0.0000000000
     1 1.6023105732E+00
     2 -6.7221395515E-01
     3 7.4982280899E-02
     4 -1.6526765335E-01
     5 -2.4638524129E-16
     6 1.3500649593E-15
     7 2.1590928712E-14
     8 1.4422316128E-15
     9 -4.1539069067E-01
    10 -2.0508582075E-14
    11 2.1672668825E-16
    12 -4.4943683270E-01
    13 -1.7650083050E-14
    14 -7.7762028875E-17
    15 5.0747604961E-15
    16 -2.6223402810E-17
    17 1.6808094637E-16
    18 -3.8378494018E-15
    19 -1.1179822676E-01
    20 -1.6023105732E+00
    21 6.7221395515E-01
    22 7.4982280899E-02
    23 1.6526765335E-01
    24 9.8490651862E-18
   Sym= A
   Ene=     0.8285629270
  Spin= Alpha
 Occup= 0.0000000000
     1 -1.3967917038E+00
     2 5.4305959625E-01
     3 -2.8113813165E-01
     4 3.2973743519E-02
     5 -3.4319111256E-17
     6 5.5993673757E-02
     7 4.7083409742E-01
     8 -2.4401894865E-01
     9 3.1623303375E-14
    10 -4.1913471959E-01
    11 4.0543554317E-17
    12 1.2050486748E-14
    13 -4.7864588110E-02
    14 -5.6130052092E-18
    15 8.8642429196E-02
    16 -2.2829675590E-17
    17 2.2425823395E-16
    18 -6.2361088497E-02
    19 7.9116855787E-15
    20 -1.3967917038E+00
    21 5.4305959625E-01
    22 2.8113813165E-01
    23 3.2973743519E-02
    24 -3.1994012982E-17
   Sym= A
   Ene=     1.1614322476
  Spin= Alpha
 Occup= 0.0000000000
     1 -8.3027324569E-01
     2 -1.3801600064E-01
     3 1.1579817847E-01
     4 -2.4014572575E-01
     5 -2.5658374627E-16
     6 -9.2037754270E-03
     7 1.5104821418E-01
     8 7.6639319025E-01
     9 1.7539765292E-14
    10 1.1407258622E+00
    11 -5.2659423278E-15
    12 -2.4519095367E-14
    13 -1.2515316782E+00
    14 4.0199938636E-15
    15 -7.5825296511E-03
    16 -3.2791488645E-16
    17 4.3488264707E-17
    18 -7.1856733204E-03
    19 2.4206183803E-15
    20 -8.3027324569E-01
    21 -1.3801600064E-01
    22 -1.1579817847E-01
    23 -2.4014572575E-01
    24 3.2660177030E-16
   Sym= A
   Ene=     1.2017245854
  Spin= Alpha
 Occup= 0.0000000000
     1 -4.3809443779E-15
     2 -2.0867691916E-15
     3 7.9983766451E-16
     4 -1.4936127702E-15
     5 -9.3581061319E-03
     6 -8.4138643489E-17
     7 7.6138769250E-16
     8 3.3741468515E-15
     9 -2.9566728002E-15
    10 3.7620609194E-15
    11 1.4108372005E+00
    12 3.6778489935E-15
    13 -4.4751481940E-15
    14 -1.0238229053E+00
    15 -2.0114600888E-16
    16 1.6793413864E-16
    17 -3.4495184774E-03
    18 2.1894610656E-16
    19 4.0152855742E-16
    20 -2.5899951979E-15
    21 9.7724393427E-16
    22 -3.5605446430E-16
    23 -1.3930222334E-15
    24 -9.3581061319E-03
   Sym= A
   Ene=     1.2482997580
  Spin= Alpha
 Occup= 0.0000000000
     1 -6.8339448972E-01
     2 -8.0409871793E-01
     3 3.2907359913E-01
     4 -1.5190848070E-01
     5 -9.0478293943E-16
     6 1.1384615136E-15
     7 9.3003351419E-15
     8 1.3662843098E-14
     9 -1.0446524088E+00
    10 1.1171250541E-14
    11 -3.4949267013E-15
    12 1.7806026938E+00
    13 -2.6879942993E-14
    14 2.7510811537E-15
    15 1.1607956560E-15
    16 -1.9430055724E-17
    17 7.1958970817E-17
    18 -1.7461839255E-16
    19 -3.9932660891E-02
    20 6.8339448972E-01
    21 8.0409871793E-01
    22 3.2907359913E-01
    23 1.5190848070E-01
    24 2.6356456283E-16
   Sym= A
   Ene=     1.4603612040
  Spin= Alpha
 Occup= 0.0000000000
     1 -6.3635007784E-15
     2 1.7813600636E-16
     3 2.8389072368E-15
     4 4.1863051314E-15
     5 6.8178946969E-01
     6 1.2119625676E-15
     7 6.8325264083E-15
     8 -2.1205559574E-15
     9 -9.5292697878E-16
    10 2.8487960083E-15
    11 1.3192702147E-15
    12 2.0979224454E-15
    13 -7.3794301751E-15
    14 -1.9821431115E-15
    15 5.9408625621E-16
    16 1.3004843231E-01
    17 1.1327725183E-16
    18 8.4217029819E-16
    19 -9.8292216277E-17
    20 -5.0875613712E-15
    21 2.5365322910E-15
    22 -2.4214533540E-15
    23 5.1076764048E-15
    24 -6.8178946969E-01
   Sym= A
   Ene=     1.4872260744
  Spin= Alpha
 Occup= 0.0000000000
     1 4.2700601393E-01
     2 -2.4498781872E-01
     3 -2.6220672561E-01
     4 -5.7597495247E-01
     5 4.9385082381E-15
     6 -2.5418173279E-01
     7 -1.2584353892E+00
     8 7.7566468487E-01
     9 -4.3026501989E-15
    10 -2.2660243316E-01
    11 -3.5732837599E-16
    12 1.4580660122E-14
    13 6.6145349080E-01
    14 6.9849018229E-16
    15 -5.6215220229E-02
    16 1.0355544775E-15
    17 -1.7249960013E-17
    18 -1.0305674155E-01
    19 -4.5081986613E-16
    20 4.2700601393E-01
    21 -2.4498781872E-01
    22 2.6220672561E-01
    23 -5.7597495247E-01
    24 -6.0467157476E-15
   Sym= A
   Ene=     1.7005293890
  Spin= Alpha
 Occup= 0.0000000000
     1 3.9480027623E-15
     2 1.9487840042E-15
     3 -8.8103153926E-16
     4 7.1763175112E-16
     5 -7.7341401972E-01
     6 1.6109729772E-15
     7 7.5777813637E-15
     8 -7.8174098323E-15
     9 4.3056814662E-16
    10 2.6006619896E-17
    11 2.3484819515E-02
    12 -1.5224477286E-15
    13 2.2348440290E-15
    14 6.3823800559E-01
    15 -3.3457030356E-16
    16 4.0557678765E-16
    17 1.6074100496E-01
    18 -3.2304684300E-17
    19 3.0202554235E-17
    20 2.8106071522E-15
    21 3.7072774254E-16
    22 8.2482594482E-16
    23 -3.8629547453E-16
    24 -7.7341401972E-01
   Sym= A
   Ene=     1.8795213174
  Spin= Alpha
 Occup= 0.0000000000
     1 1.3607028367E+00
     2 3.8032289971E-01
     3 -3.9908103878E-01
     4 -1.0583034459E-01
     5 2.9281865206E-15
     6 7.0878291111E-01
     7 3.0652481048E+00
     8 -2.9465160106E+00
     9 -9.1989720784E-15
    10 1.3008038135E-01
    11 -3.5811194922E-16
    12 -6.8872176929E-14
    13 9.5720543917E-01
    14 -1.2776870230E-15
    15 -1.5196848164E-01
    16 -1.2440631107E-16
    17 -3.7749975210E-16
    18 -5.6194867532E-02
    19 -1.9494913130E-15
    20 1.3607028367E+00
    21 3.8032289971E-01
    22 3.9908103878E-01
    23 -1.0583034459E-01
    24 8.5315188690E-16
   Sym= A
   Ene=     1.9039038178
  Spin= Alpha
 Occup= 0.0000000000
     1 -7.5024195656E-01
     2 -1.0823947279E-01
     3 -4.5517565199E-01
     4 -6.7885876718E-01
     5 -8.4394873917E-16
     6 4.9301854058E-14
     7 2.1554669127E-13
     8 -2.0236504103E-13
     9 -1.2166186028E-01
    10 8.4091895967E-15
    11 -6.6676614274E-17
    12 1.0029238096E+00
    13 6.3576732636E-14
    14 3.9281213675E-16
    15 -1.1407049619E-14
    16 3.3831937744E-16
    17 -1.8441363290E-16
    18 -5.5708900074E-15
    19 2.5734679003E-02
    20 7.5024195656E-01
    21 1.0823947279E-01
    22 -4.5517565199E-01
    23 6.7885876718E-01
    24 -5.6350616780E-17
   Sym= A
   Ene=     2.4628175179
  Spin= Alpha
 Occup= 0.0000000000
     1 -5.4527225475E-01
     2 -3.2871427987E-01
     3 7.0675582713E-01
     4 -5.7548836653E-01
     5 1.3072490437E-16
     6 3.7165259735E-14
     7 1.8700922986E-13
     8 6.1003328642E-14
     9 1.2465891087E+00
    10 -9.9389464276E-14
    11 1.0256872308E-15
    12 2.2294318323E-01
    13 -1.6921409896E-14
    14 9.2326282237E-18
    15 1.9019190364E-14
    16 -1.7018126749E-16
    17 3.1987802538E-16
    18 -4.9080911625E-15
    19 1.4324036564E-01
    20 5.4527225475E-01
    21 3.2871427987E-01
    22 7.0675582713E-01
    23 5.7548836653E-01
    24 1.7211309008E-16
   Sym= A
   Ene=     2.4753598658
  Spin= Alpha
 Occup= 0.0000000000
     1 -8.3456700000E-01
     2 -1.6171787676E-01
     3 7.8725784964E-01
     4 -4.8327852959E-01
     5 -1.4574623467E-16
     6 2.7045401902E-01
     7 1.4074000270E+00
     8 8.2032391584E-01
     9 -1.3258275668E-13
    10 -9.2410572660E-01
    11 -8.6452335095E-16
    12 -3.0447849078E-14
    13 -2.0036174947E-01
    14 -3.8392856123E-17
    15 2.1742406027E-01
    16 1.1303684352E-16
    17 -2.9489568109E-16
    18 -5.0023292772E-02
    19 -1.6895591379E-14
    20 -8.3456700000E-01
    21 -1.6171787676E-01
    22 -7.8725784964E-01
    23 -4.8327852959E-01
    24 -1.3997077843E-16
   Sym= A
   Ene=     3.2563487067
  Spin= Alpha
 Occup= 0.0000000000
     1 -1.0898229319E-16
     2 -1.4128874399E-16
     3 2.0488336555E-16
     4 1.0795221560E-16
     5 -3.8388152676E-01
     6 -1.2556715286E-16
     7 -3.4484174544E-16
     8 -1.9388434512E-16
     9 3.8133166637E-16
    10 1.2009482801E-16
    11 -1.8007917034E-02
    12 -2.4377088415E-17
    13 -1.3314131995E-16
    14 3.0000436942E-01
    15 -1.0495418517E-16
    16 1.8555138035E-14
    17 -1.0361563989E+00
    18 -5.9954769096E-17
    19 1.4858979674E-17
    20 -4.8856640868E-16
    21 5.6952431979E-16
    22 6.0941929505E-16
    23 4.6457883889E-16
    24 -3.8388152676E-01
   Sym= A
   Ene=     3.3553150671
  Spin= Alpha
 Occup= 0.0000000000
     1 -4.9997198560E-16
     2 -1.6680220479E-16
     3 -1.2435736952E-16
     4 -1.9533540686E-16
     5 3.7562060269E-01
     6 -5.5530216307E-17
     7 -6.0554534042E-16
     8 4.2982725631E-16
     9 -2.1627558362E-16
    10 -3.2515647897E-16
    11 1.1852818335E-16
    12 6.8631008388E-16
    13 1.1727357288E-16
    14 5.7413800470E-15
    15 7.0855530830E-17
    16 -1.0700733182E+00
    17 -1.8648267583E-14
    18 3.3676574083E-17
    19 2.3952677632E-17
    20 3.9316605237E-16
    21 4.1816130651E-17
    22 -3.2361963968E-16
    23 3.9847860497E-16
    24 -3.7562060269E-01
   Sym= A
   Ene=     3.4726473748
  Spin= Alpha
 Occup= 0.0000000000
     1 -6.7172065613E-01
     2 -6.1848914011E-02
     3 4.0714147787E-01
     4 2.8222002881E-01
     5 1.8721128676E-16
     6 -8.8917422869E-02
     7 -3.0000860866E-01
     8 7.4299536610E-01
     9 9.2283617655E-16
    10 -8.7274400741E-02
    11 4.8553148837E-16
    12 -2.5532906891E-15
    13 -5.9517214822E-01
    14 -2.3471538786E-16
    15 -5.3694900512E-01
    16 -5.5849313699E-17
    17 9.6368393200E-17
    18 -9.3444821134E-01
    19 -1.7058048989E-15
    20 -6.7172065613E-01
    21 -6.1848914011E-02
    22 -4.0714147787E-01
    23 2.8222002881E-01
    24 1.2299905134E-16
   Sym= A
   Ene=     3.9110178273
  Spin= Alpha
 Occup= 0.0000000000
     1 -2.0202788200E+00
     2 -1.8714233172E-01
     3 6.1854760322E-01
     4 -5.0483955549E-01
     5 -1.4811569291E-17
     6 -1.2740026521E-01
     7 -2.8628021337E-01
     8 2.1827496140E+00
     9 6.5362664224E-15
    10 -5.6075594000E-01
    11 5.5792931336E-17
    12 1.4998781993E-14
    13 -8.0203265809E-01
    14 2.0319779261E-16
    15 -1.0025867154E+00
    16 -1.7486323279E-18
    17 -6.0541736606E-18
    18 6.4964316476E-01
    19 -1.9397438564E-14
    20 -2.0202788200E+00
    21 -1.8714233172E-01
    22 -6.1854760322E-01
    23 -5.0483955549E-01
    24 1.3138622716E-16
   Sym= A
   Ene=     4.1133179467
  Spin= Alpha
 Occup= 0.0000000000
     1 1.8384885605E+00
     2 2.8571598294E-01
     3 -6.1907382944E-01
     4 4.4346212865E-01
     5 1.2504948962E-16
     6 -3.3926502864E-15
     7 -9.5384951403E-15
     8 4.3991899912E-14
     9 -6.7866354806E-01
    10 -1.1596182994E-14
    11 -4.4375377245E-16
    12 -1.1756400839E+00
    13 -1.5281895301E-14
    14 5.2216839065E-16
    15 -1.6995238963E-14
    16 5.5350954938E-17
    17 -1.5302610846E-17
    18 8.9374575110E-15
    19 1.3109134463E+00
    20 -1.8384885605E+00
    21 -2.8571598294E-01
    22 -6.1907382944E-01
    23 -4.4346212865E-01
    24 -5.8833227738E-17
