[Molden Format]
[Atoms] AU
   N     1     7    0.00000000    0.00000000    1.13383567
   O     2     8    0.00000000    0.00000000   -1.13383567
[GTO]
   1   0
   s     8  1.00
    9.0460000000E+03    7.0000000000E-04
    1.3570000000E+03    5.3890000000E-03
    3.0930000000E+02    2.7406000000E-02
    8.7730000000E+01    1.0320700000E-01
    2.8560000000E+01    2.7872300000E-01
    1.0210000000E+01    4.4854000000E-01
    3.8380000000E+00    2.7823800000E-01
    7.4660000000E-01    1.5440000000E-02
   s     8  1.00
    9.0460000000E+03   -1.5300000000E-04
    1.3570000000E+03   -1.2080000000E-03
    3.0930000000E+02   -5.9920000000E-03
    8.7730000000E+01   -2.4544000000E-02
    2.8560000000E+01   -6.7459000000E-02
    1.0210000000E+01   -1.5807800000E-01
    3.8380000000E+00   -1.2183100000E-01
    7.4660000000E-01    5.4900300000E-01
   s     1  1.00
    2.2480000000E-01    1.0000000000E+00
   p     3  1.00
    1.3550000000E+01    3.9919000000E-02
    2.9170000000E+00    2.1716900000E-01
    7.9730000000E-01    5.1031900000E-01
   p     1  1.00
    2.1850000000E-01    1.0000000000E+00
   d     1  1.00
    8.1700000000E-01    1.0000000000E+00

   2   0
   s     8  1.00
    1.1720000000E+04    7.1000000000E-04
    1.7590000000E+03    5.4700000000E-03
    4.0080000000E+02    2.7837000000E-02
    1.1370000000E+02    1.0480000000E-01
    3.7030000000E+01    2.8306200000E-01
    1.3270000000E+01    4.4871900000E-01
    5.0250000000E+00    2.7095200000E-01
    1.0130000000E+00    1.5458000000E-02
   s     8  1.00
    1.1720000000E+04   -1.6000000000E-04
    1.7590000000E+03   -1.2630000000E-03
    4.0080000000E+02   -6.2670000000E-03
    1.1370000000E+02   -2.5716000000E-02
    3.7030000000E+01   -7.0924000000E-02
    1.3270000000E+01   -1.6541100000E-01
    5.0250000000E+00   -1.1695500000E-01
    1.0130000000E+00    5.5736800000E-01
   s     1  1.00
    3.0230000000E-01    1.0000000000E+00
   p     3  1.00
    1.7700000000E+01    4.3018000000E-02
    3.8540000000E+00    2.2891300000E-01
    1.0460000000E+00    5.0872800000E-01
   p     1  1.00
    2.7530000000E-01    1.0000000000E+00
   d     1  1.00
    1.1850000000E+00    1.0000000000E+00

[5D]
[MO]
   Sym= A
   Ene=     0.0000000000
  Spin= Alpha
 Occup= 1.9999930936
     1 -2.0744057136E-03
     2 -3.2200446589E-04
     3 -3.8435683574E-03
     6 -2.4591907587E-03
     9 1.4180680155E-03
    10 8.0658216383E-04
    15 -1.0000123081E+00
    16 1.8162128787E-02
    17 1.5356181643E-02
    20 -6.8416664760E-03
    23 6.0935693922E-04
    24 -2.7158299971E-04
   Sym= A
   Ene=     0.0000000000
  Spin= Alpha
 Occup= 1.9999903833
     1 -9.9922690247E-01
     2 2.2335959448E-02
     3 1.2237566308E-02
     6 9.2714607195E-03
     9 1.3722675071E-03
    10 -1.0289113804E-03
    15 1.8133826619E-03
    16 -1.6660307042E-03
    17 -1.4466245785E-03
    20 3.0395815690E-03
    23 1.0649863971E-03
    24 1.0003627151E-03
   Sym= A
   Ene=     0.0000000000
  Spin= Alpha
 Occup= 1.9945020240
     1 1.3859858779E-02
     2 4.5813981509E-02
     3 1.2804104499E-02
     6 -7.9912356670E-02
     9 -3.9991195737E-02
    10 -4.4829134794E-03
    15 -2.9287441081E-02
    16 -9.7665547908E-01
    17 -5.3710158275E-01
    20 4.2410340188E-01
    23 1.3198705153E-01
    24 8.6475587836E-03
   Sym= A
   Ene=     0.0000000000
  Spin= Alpha
 Occup= 1.9865933119
     1 4.2691784938E-02
     2 1.0276695485E+00
     3 5.4907830218E-01
     6 4.3292352693E-01
     9 1.0204095495E-01
    10 -1.5969954246E-02
    15 -8.3339441820E-03
    16 -1.0758221569E-01
    17 -1.0628141383E-01
    20 -4.9766169451E-02
    23 -5.5599856285E-02
    24 5.6736402972E-03
   Sym= A
   Ene=     0.0000000000
  Spin= Alpha
 Occup= 1.9860574951
     1 -1.7160311615E-02
     2 -3.8131827384E-01
     3 6.8036521419E-02
     6 6.3229730683E-01
     9 9.2498108485E-02
    10 -5.0292819837E-02
    15 -7.2387158400E-03
    16 -3.3639348104E-01
    17 -5.7402168227E-02
    20 -7.1216928196E-01
    23 -2.1695976555E-01
    24 -3.4530651998E-02
   Sym= A
   Ene=     0.0000000000
  Spin= Alpha
 Occup= 1.8963624120
     4 2.9152160544E-02
     5 -5.8719190000E-01
     7 9.4812961316E-03
     8 -1.9098861623E-01
    11 -2.6877253222E-03
    12 5.4141836688E-02
    18 3.8869411889E-02
    19 -7.8294408685E-01
    21 1.4373911133E-02
    22 -2.8954315242E-01
    25 1.7883758694E-03
    26 -3.6026333621E-02
   Sym= A
   Ene=     0.0000000000
  Spin= Alpha
 Occup= 1.8963624120
     4 5.8719190000E-01
     5 2.9152160544E-02
     7 1.9098861623E-01
     8 9.4812961316E-03
    11 -5.4141836688E-02
    12 -2.6877253222E-03
    18 7.8294408685E-01
    19 3.8869411889E-02
    21 2.8954315242E-01
    22 1.4373911133E-02
    25 3.6026333621E-02
    26 1.7883758694E-03
   Sym= A
   Ene=     0.0000000000
  Spin= Alpha
 Occup= 0.1070082042
     4 9.4503692660E-01
     5 4.6922016028E-02
     7 2.9655840428E-01
     8 1.4723688592E-02
    11 -3.5067653226E-02
    12 -1.7410038277E-03
    18 -9.0242405361E-01
    19 -4.4805354334E-02
    21 -1.5733432309E-01
    22 -7.8112709196E-03
    25 1.0935621369E-02
    26 5.4296641706E-04
   Sym= A
   Ene=     0.0000000000
  Spin= Alpha
 Occup= 0.1070082042
     4 4.6922016028E-02
     5 -9.4503692660E-01
     7 1.4723688592E-02
     8 -2.9655840428E-01
    11 -1.7410038277E-03
    12 3.5067653226E-02
    18 -4.4805354334E-02
    19 9.0242405361E-01
    21 -7.8112709196E-03
    22 1.5733432309E-01
    25 5.4296641706E-04
    26 -1.0935621369E-02
   Sym= A
   Ene=     0.0000000000
  Spin= Alpha
 Occup= 0.0131543485
     1 1.3500230838E-01
     2 9.9553630836E-01
     3 7.6250351467E-02
     6 -1.1943414530E+00
     9 -1.8453141145E-01
    10 1.6163515808E-01
    15 -1.3567599231E-01
    16 -9.5326697149E-01
    17 -1.5011016880E-01
    20 -1.1819955401E+00
    23 -1.0162370578E-01
    24 -1.1067633460E-01
   Sym= A
   Ene=     0.0000000000
  Spin= Alpha
 Occup= 0.0028212399
     1 -5.2039101701E-01
     2 -2.5211923711E+00
     3 1.4006614140E+00
     6 -7.9179461758E-01
     9 5.3131604920E-01
    10 -1.7473564212E-01
    15 3.8359920410E-02
    16 1.2971692992E-01
    17 -1.3649742421E-01
    20 4.5850402231E-02
    23 -1.3046195798E-01
    24 2.4161141420E-02
   Sym= A
   Ene=     0.0000000000
  Spin= Alpha
 Occup= 0.0022056382
     1 3.4573651105E-02
     2 1.0397841822E-01
     3 -7.9184224182E-02
     6 1.1720819325E-02
     9 7.6601986722E-02
    10 -3.5649806450E-03
    15 -5.2162761976E-01
    16 -2.5012723833E+00
    17 1.3469018041E+00
    20 7.5262803191E-01
    23 -5.9080988377E-01
    24 -1.1415689643E-01
   Sym= A
   Ene=     0.0000000000
  Spin= Alpha
 Occup= 0.0011541035
     1 1.0781647831E-01
     2 4.4060877285E-01
     3 2.3025715608E-01
     6 -2.3092320680E-01
     9 1.2694684336E-01
    10 6.9136136244E-02
    15 1.9154312373E-01
    16 8.0545773237E-01
    17 -5.8888236399E-01
    20 4.5760270108E-01
    23 -8.0193332182E-01
    24 6.9303522051E-01
   Sym= A
   Ene=     0.0000000000
  Spin= Alpha
 Occup= 0.0009787042
     4 -5.8436012546E-01
     5 -2.9015827578E-02
     7 6.0708407899E-02
     8 3.0149467343E-03
    11 1.8851986997E-01
    12 9.3604087745E-03
    18 -1.0741645356E+00
    19 -5.3335351981E-02
    21 1.0759950132E+00
    22 5.3425482335E-02
    25 -1.6589346513E-01
    26 -8.2375436327E-03
   Sym= A
   Ene=     0.0000000000
  Spin= Alpha
 Occup= 0.0009787042
     4 -2.9015827578E-02
     5 5.8436012546E-01
     7 3.0149467343E-03
     8 -6.0708407899E-02
    11 9.3604087745E-03
    12 -1.8851986997E-01
    18 -5.3335351981E-02
    19 1.0741645356E+00
    21 5.3425482335E-02
    22 -1.0759950132E+00
    25 -8.2375436327E-03
    26 1.6589346513E-01
   Sym= A
   Ene=     0.0000000000
  Spin= Alpha
 Occup= 0.0006118984
    13 3.6081123705E-02
    14 -4.5151923429E-02
    27 6.2040448937E-01
    28 -7.7637628326E-01
   Sym= A
   Ene=     0.0000000000
  Spin= Alpha
 Occup= 0.0006118984
    13 4.5151923429E-02
    14 3.6081123705E-02
    27 7.7637628326E-01
    28 6.2040448937E-01
   Sym= A
   Ene=     0.0000000000
  Spin= Alpha
 Occup= 0.0005604085
     4 -3.4455467843E-01
     5 -1.7108073809E-02
     7 -1.2029462541E-01
     8 -5.9733976634E-03
    11 1.8046233103E-01
    12 8.9601674947E-03
    18 -2.5815922053E-01
    19 -1.2818429023E-02
    21 3.3568070009E-01
    22 1.6667316943E-02
    25 1.0392575768E+00
    26 5.1602629037E-02
   Sym= A
   Ene=     0.0000000000
  Spin= Alpha
 Occup= 0.0005604085
     4 1.7108073809E-02
     5 -3.4455467843E-01
     7 5.9733976634E-03
     8 -1.2029462541E-01
    11 -8.9601674947E-03
    12 1.8046233103E-01
    18 1.2818429023E-02
    19 -2.5815922053E-01
    21 -1.6667316943E-02
    22 3.3568070009E-01
    25 -5.1602629037E-02
    26 1.0392575768E+00
   Sym= A
   Ene=     0.0000000000
  Spin= Alpha
 Occup= 0.0005291593
     4 -6.3939207622E-03
     5 1.2875729107E-01
     7 6.9978573381E-03
     8 -1.4093007987E-01
    11 -5.3774503311E-02
    12 1.0828973605E+00
    18 -1.6292470473E-02
    19 3.2808645788E-01
    21 -5.9018569781E-03
    22 1.1885582852E-01
    25 -1.2383104199E-02
    26 2.4937431356E-01
   Sym= A
   Ene=     0.0000000000
  Spin= Alpha
 Occup= 0.0005291593
     4 1.2875729107E-01
     5 6.3939207622E-03
     7 -1.4093007987E-01
     8 -6.9978573381E-03
    11 1.0828973605E+00
    12 5.3774503311E-02
    18 3.2808645788E-01
    19 1.6292470473E-02
    21 1.1885582852E-01
    22 5.9018569781E-03
    25 2.4937431356E-01
    26 1.2383104199E-02
   Sym= A
   Ene=     0.0000000000
  Spin= Alpha
 Occup= 0.0004741929
     1 1.1282527979E-01
     2 4.2831995736E-01
     3 -3.8592637643E-01
     6 2.3868219862E-01
     9 4.7813427066E-02
    10 -1.1828230533E+00
    15 1.7846400811E-01
    16 8.3681573938E-01
    17 8.7545280643E-02
    20 7.0033030631E-01
    23 -1.3302695681E-01
    24 2.8784252287E-01
   Sym= A
   Ene=     0.0000000000
  Spin= Alpha
 Occup= 0.0003082938
    13 9.1165360961E-01
    14 4.1439033047E-01
    27 -1.2385770399E-01
    28 -5.6299192619E-02
   Sym= A
   Ene=     0.0000000000
  Spin= Alpha
 Occup= 0.0003082938
    13 -4.1439033047E-01
    14 9.1165360961E-01
    27 5.6299192619E-02
    28 -1.2385770399E-01
   Sym= A
   Ene=     0.0000000000
  Spin= Alpha
 Occup= 0.0001339463
     1 2.9703860540E-01
     2 1.4312700674E+00
     3 7.7186773657E-01
     6 -1.1182064317E+00
     9 -1.4483618477E-01
    10 2.2281902460E-01
    15 4.2577090347E-01
    16 1.7154802422E+00
    17 -1.7438626062E+00
    20 3.3478421224E-01
    23 -1.3525148462E+00
    24 -9.2804719731E-01
   Sym= A
   Ene=     0.0000000000
  Spin= Alpha
 Occup= 0.0000972208
     4 -1.1454605787E+00
     5 -5.6886908062E-02
     7 1.3382682600E+00
     8 6.6461281184E-02
    11 -9.0387693861E-02
    12 -4.4884986572E-03
    18 3.6560831792E-01
    19 1.8156712739E-02
    21 -7.9001367920E-01
    22 -3.9233415563E-02
    25 -6.7170479462E-02
    26 -3.3361124831E-03
   Sym= A
   Ene=     0.0000000000
  Spin= Alpha
 Occup= 0.0000972208
     4 5.6886908062E-02
     5 -1.1454605787E+00
     7 -6.6461281184E-02
     8 1.3382682600E+00
    11 4.4884986572E-03
    12 -9.0387693861E-02
    18 -1.8156712739E-02
    19 3.6560831792E-01
    21 3.9233415563E-02
    22 -7.9001367920E-01
    25 3.3361124831E-03
    26 -6.7170479462E-02
   Sym= A
   Ene=     0.0000000000
  Spin= Alpha
 Occup= 0.0000076204
     1 3.6390867396E-01
     2 1.3501732223E+00
     3 -4.0036262014E+00
     6 8.2937037890E-02
     9 2.9534057371E+00
    10 -6.7047572602E-01
    15 -5.5244677116E-01
    16 -1.9888108317E+00
    17 4.6318506054E+00
    20 1.0136979011E-01
    23 2.2793817920E+00
    24 2.9249681335E-01
